Name,Formula,Dipole momentμ debye
trans-2-bromo-3-chlorotetralin,    ⋮,1.45
trans-2-ethoxy-6-methyltetrahydropyran,C8H16O2,0.69
trans-2-Ethyl-3-methyltetrahydropyran,C8H16O,1.57
trans-2-methoxy-3-methyltetrahydropyran,C7H14O2,1.59
"trans-2-methoxy-4-methyl-1,3,2-dioxaphosphorinane",    ⋮,3.4
trans-2-methoxy-4-methyltetrahydropyran,C7H14O2,0.74
trans-2-methoxy-5-methyltetrahydropyran,    ⋮,1.69
trans-2-methoxy-6-methyltetrahydropyran,    ⋮,0.69
"trans-2-tert-butyl-1,3-dithian-1-oxide",C8H16OS2,3.58
"trans-2-tert-butyl-cis-2-methyl-1,3-dithian-1-oxide",,5.56
"trans-3,3'-dichlorostilbene",C14H10Cl2,1.94
"trans-3,4'-dichlorostilbene",    ⋮,1.53
"trans-3,4-dibromo-7,7-dichlorobicyclo[4.1.0]heptane",,2.08
"trans-3,4-dichlorostilbene",C14H10Cl2,2.49
trans-3-methylcyclohexanol,C7H14O,1.75
"trans-4,5-dicyanocyclohexene",C8H8N2,4.13
"trans-5,5-diethyl-1,3-heptadiene",C11H20,0.86
trans-benzenediazocyanide,C7H5N3,5
trans-chalcone,C15H12O,3.07
trans-decalin,C10H18,0
trans-o-bromobenzenediazocyanide,C7H4BrN3,5.36
trans-p-bromobenzenediazocyanide,    ⋮,3.81
trans-p-chlorobenzenediazocyanide,C7H4ClN3,3.76
trans-p-nitrobenzenediazocyanide,C7H4N4O2,1.48
trans-selenophthene,C6H4Se2,1.08
"trans-thianthrene 5,10-dioxide",C12H8O2S2,4.88
tri(phenyl)bismuthane,C18H15Bi,0
tri(propan-2-yl)phosphane,C9H21P,1.32
tri-n-decylphosphine oxide,C30H63OP,6
tri-tert-butyl phosphate,C12H27O4P,2.33
triacetin,C9H14O6,2.73
tribromo-methylstannane,CH3Br3Sn,3.24
tribromofluoromethane,CBr3F,0
tribromomethane,CHBr3,1
tributoxyarsane,C12H27AsO3,1.7
tributoxyarsine oxide,C12H27AsO4,3.06
tributoxymethane,C13H28O3,1.66
tributyl borate,C12H27BO3,0.77
tributyl phosphate,C12H27O4P,2.92
tributyl(methoxy)stannane,C13H30OSn,2.18
tributyl-chlorostannane,C12H27ClSn,3.31
tributylamine,C12H27N,0.76
tributylarsane,C12H27As,1.08
tributylarsine oxide,C12H27AsO,5.18
tributyldiethylaminotin,C16H37NSn,0.55
tributylphosphine,C12H27P,1.49
tributylphosphine oxide,C12H27OP,4.35
"tributyltin 2,4-dichlorophenolate",C18H30Cl2OSn,4.14
tributyltin salicylate,C19H32O3Sn,3.48
trichloro(1-chloroethyl)silane,C2H4Cl4Si,2.3
trichloro(2-chloroethyl)germane,C2H4Cl4Ge,2.41
trichloro(chloromethyl)silane,CH2Cl4Si,1.61
trichloro-(2-chloroethenyl)germane,C2H2Cl4Ge,1.86
trichloro-ethylgermane,C2H5Cl3Ge,2.28
trichloro-ethylstannane,C2H5Cl3Sn,4.08
trichloro-methylgermane,CH3Cl3Ge,2.63
trichloro-methylsilane,CH3Cl3Si,1.89
trichloro-methyltellurium,CH3Cl3Te,3.79
trichloro-phenylstannane,C6H5Cl3Sn,4.3
trichlorochloromethylgermane,CH2Cl4Ge,2.1
trichloroethanenitrile,C2Cl3N,2
trichloroethene,C2HCl3,0.81
trichlorofluoromethane,CCl3F,0.48
trichlorofluorosilane,Cl3FSi,0.49
trichloromethane,CHCl3,1.15
trichloromethylstannane,CH3Cl3Sn,3.77
trichloromethyltin,CH2Cl3Sn,3.62
trichloronitromethane,CCl3NO2,1.86
trichlorophenoxytitanium,C6H5Cl3OTi,2.97
trichlorosilane,HCl3Si,0.86
"tricosane-8,16-dione",C23H44O2,3.6
tricresyl phosphate,C21H21O4P,3.18
"tricyclo[5.2.1.02,6]deca-3,8-diene",C10H12,0.4
tridecanedioic acid,C13H24O4,2.68
tridodecylamine hydrobromide,C36H76BrN,9.11
tridodecylamine hydrochloride,C36H76ClN,8.47
tridodecylphosphine oxide,C36H75OP,5.4
triethanolamine,C6H15NO3,3.6
triethoxyarsine oxide,C6H15AsO4,3.08
triethoxymethane,C7H16O3,1.67
triethoxymethylsilane,C7H18O3Si,1.71
triethoxysilane,C6H16O3Si,1.8
triethyl borate,C6H15BO3,0.75
triethyl phosphate,C6H15O4P,2.86
triethyl phosphite,C6H15O3P,1.96
triethyl thiophosphate,C6H15O3PS,2.82
triethyl-p-chlorophenoxysilane,C12H19ClOSi,2.47
triethyl-trimethylsilyloxysilane,C9H24OSi2,0.41
triethyl-[(2-methylpropan-2-yl)oxy]silane,C10H24OSi,1.04
triethylaluminium,C6H15Al,0.5
triethylamine,C6H15N,0.87
triethylarsine,C6H15As,1.05
triethylarsine oxide,C6H15AsO,5.27
triethylborane,C6H15B,0.3
triethylbromosilane,C6H15BrSi,2.42
triethylchlorosilane,C6H15ClSi,2.09
triethyldimethylaminotin,C8H21NSn,1.56
triethylene glycol,C6H14O4,2.99
triethylethoxystannane,C8H20OSn,2.19
triethylfluorosilane,C6H15FSi,1.74
triethylgallium,C6H15Ga,0.7
triethylindium,C6H15In,0.6
triethyllead bromide,C6H15BrPb,4.49
triethyllead butyrate,C10H22O2Pb,3.09
triethyllead chloride,C6H15ClPb,4.69
triethyllead propionate,C9H20O2Pb,3.13
triethylmethoxysilane,C7H18OSi,1.13
triethylphenoxysilane,C12H20OSi,1.22
triethylphosphine,C6H15P,1.84
triethylphosphine oxide,C6H15OP,4.37
triethylsilane,C6H16Si,0.5
triethylsilanol,C6H16OSi,1.51
triethylsilylpropyl vinyl sulfide,C11H24SSi,1.33
triethylthallium,C6H15Tl,0
triethyltin acetate,C8H18O2Sn,2.05
triethyltin bromide,C6H15BrSn,3.35
triethyltin hydroxide,C6H16OSn,1.93
trifluoramine oxide,F3NO,0.04
trifluoro-methylgermane,CH3F3Ge,3.49
trifluoro-methylsilane,CH3F3Si,2.33
trifluoroacetic acid,C2HF3O2,2.26
trifluoroacetonitrile,C2F3N,1.33
trifluoroacetylmanganese pentacarbonyl,C7F3MnO6,3.47
trifluoroethene,C2HF3,1.4
trifluoroiodomethane,CF3I,0.92
trifluoroiodosilane,F3ISi,1.11
trifluoroisocyanomethane,C2F3N,1.15
trifluoromethane,CHF3,1.65
trifluoromethylbenzene,C7H5F3,2.86
trifluoromethylmanganese pentacarbonyl,    ⋮,3.57
trifluoromethylsilane,CH3F3Si,2.34
trifluoronitromethane,CF3NO2,1.44
trifluoronitrosomethane,CF3NO,0.31
trifluorosilane,HF3Si,1.27
triheptylphosphine oxide,C21H45OP,5.9
trihexadecylphosphine oxide,C48H99OP,4.1
trihexylarsane,C18H39As,1.09
trihexyloxyarsine,C18H39AsO3,1.72
trihexylphosphine oxide,C18H39OP,5.95
triisopropyl phosphate,C9H21O4P,2.86
trimethoxymethylsilane,C4H12O3Si,1.78
trimethoxyphosphine sulfide,C3H9O3PS,2.85
trimethyl borate,C3H9BO3,0.2
trimethyl orthoformate,C4H10O3,1.7
trimethyl phosphate,C3H9O4P,2.82
trimethyl phosphite,C3H9O3P,1.83
trimethyl(3-chlorophenylthio)germane,C9H13ClGeS,2.63
trimethyl(3-chlorophenylthio)plumbane,C9H13ClPbS,3.88
trimethyl(3-chlorophenylthio)silane,C9H13ClSSi,2.26
trimethyl(3-chlorophenylthio)stannane,C9H13ClSSn,2.98
trimethyl(4-chlorophenylthio)germane,C9H13ClGeS,2.43
trimethyl(4-chlorophenylthio)plumbane,C9H13ClPbS,3.65
trimethyl(4-chlorophenylthio)silane,C9H13ClSSi,1.97
trimethyl(4-chlorophenylthio)stannane,C9H13ClSSn,2.9
trimethyl(phenylthio)germane,C9H14GeS,2.18
trimethyl(phenylthio)plumbane,C9H14PbS,3.2
trimethyl(phenylthio)silane,C9H14SSi,1.76
trimethyl(phenylthio)stannane,C9H14SSn,2.58
trimethyl(propoxy)silane,C6H16OSi,1.13
trimethyl-(2-methylpropoxy)silane,C7H18OSi,1.09
trimethyl-(cyclopentene-1-yl)germane,C8H16Ge,0.95
trimethyl-prop-2-enylgermane,C6H14Ge,0.62
trimethyl-[(2-methylpropan-2-yl)oxy]silane,C7H18OSi,1.05
trimethylamine,C3H9N,0.63
trimethylamine N-oxide,C3H9NO,5.03
trimethylarsane,C3H9As,0.86
trimethyldiethylaminotin,C7H19NSn,0.87
trimethylhexyloxysilane,C9H22OSi,1.12
trimethyllead chloride,C3H9ClPb,4.5
trimethylphenoxysilane,C9H14OSi,1.22
trimethylphosphane,C3H9P,1.19
trimethylsilane,C3H10Si,0.53
trimethylsilanol,C3H10OSi,1.53
trimethyltripropyldisiloxane,C12H30OSi2,0.45
trinitromethane,CHN3O6,2.52
trinonylphosphine oxide,C27H57OP,6
trioctylphosphine oxide,C24H51OP,5.9
tripentoxyarsine,C15H33AsO3,1.72
tripentoxyarsine oxide,C15H33AsO4,3.14
tripentylarsane,C15H33As,1.15
tripentylphosphine,C15H33P,1.48
tripentylphosphine oxide,C15H33OP,4.35
triphenyl phosphate,C18H15O4P,2.97
triphenyl phosphite,C18H15O3P,1.46
triphenyl(phenylthio)stannane,C24H20SSn,1.94
triphenylamine,C18H15N,0.26
triphenylarsine,C18H15As,1.36
triphenylarsine oxide,C18H15AsO,5.51
triphenylarsine sulfide,C18H15AsS,5.43
"triphenylarsonium 2-acetyl-3,4,5-triphenylcyclopentadienylide",,5.29
triphenylarsonium tetraphenylcyclopentadienylide,    ⋮,8.32
triphenyldiethylaminotin,C22H25NSn,1.05
triphenyldimethylaminotin,C20H21NSn,1.04
triphenyllead chloride,C18H15ClPb,4.17
triphenylmethane,C19H16,0
triphenylmethanol,C19H16O,2.11
triphenylphosphine,C18H15P,1.49
triphenylphosphine oxide,C18H15OP,4.44
triphenylphosphine selenide,C18H15PSe,5.17
triphenylphosphine sulfide,C18H15PS,4.88
triphenylphosphonium tetraphenylcyclopentadienylide,,7.75
triphenylsilane,C18H16Si,0.7
triphenylstibane,C18H15Sb,0.57
triphenylstibane sulfide,C18H15SSb,5.66
triphenylstibonium tetraphenylcyclopentadienylide,    ⋮,2.2
tripropoxyarsane,C9H21AsO3,1.72
tripropoxyarsine oxide,C9H21AsO4,3.11
tripropoxymethane,C10H22O3,1.64
tripropyl phosphate,C9H21O4P,2.93
tripropyl-t-butoxysilane,C13H30OSi,1.04
tripropyl-triethylsilyloxysilane,C15H36OSi2,0.39
tripropylarsane,C9H21As,1.1
tripropylarsine oxide,C9H21AsO,5.26
tripropylphosphine,C9H21P,1.48
tripropylphosphine oxide,C9H21OP,4.36
"tris(2,4,6-trimethylphenyl)arsane",C27H33As,0.7
"tris(2,4,6-trimethylphenyl)phosphine",C27H33P,1.01
"tris(2,4-dimethylphenyl)phosphine",C24H27P,1.02
"tris(2,4-pentanedionato) chromium(III)",C15H21CrO6,0
"tris(2,4-pentanedionato) cobalt",,1.31
"tris(2,4-pentanedionato) iron(III)",C15H21FeO6,0
"tris(2,6-dimethylphenyl)phosphine",C24H27P,0.74
tris(2-chlorophenyl) phosphate,C18H12Cl3O4P,3.08
tris(2-chlorophenyl) phosphite,C18H12Cl3O3P,2.76
tris(2-chlorovinyl)arsine,C6H6AsCl3,0.39
tris(2-methylphenyl) phosphate,C21H21O4P,2.87
tris(2-methylphenyl) phosphite,C21H21O3P,1.4
tris(2-methylphenyl)phosphine,C21H21P,0.68
"tris(3,4-benzo-N-n-propylsalicylaldimino)cobalt(III)",,4.28
tris(3-chloro-N-n-propylsalicylaldimino)cobalt(III),    ⋮,6.27
tris(3-chlorophenyl) phosphate,C18H12Cl3O4P,3.16
tris(3-chlorophenyl) phosphite,C18H12Cl3O3P,2.48
tris(3-chlorophenyl)phosphine,C18H12Cl3P,2.53
tris(3-fluorophenyl)phosphine,C18H12F3P,2.32
tris(3-methylbutyl)ammonium picrate,C21H36N4O7,12.1
tris(3-methylphenyl) phosphate,C21H21O4P,3.05
tris(3-methylphenyl) phosphite,C21H21O3P,1.62
tris(4-bromophenyl)bismuthane,C18H12BiBr3,2.52
tris(4-chlorophenyl) phosphate,C18H12Cl3O4P,2.42
tris(4-chlorophenyl) phosphite,C18H12Cl3O3P,1.27
tris(4-chlorophenyl)arsane,C18H12AsCl3,1
tris(4-chlorophenyl)phosphine,C18H12Cl3P,0.65
tris(4-chlorophenylthio)methane,C19H13Cl3S3,0.92
tris(4-fluorophenyl)phosphine,C18H12F3P,0.61
tris(4-methylphenyl) phosphite,C21H21O3P,1.77
tris(4-methylphenyl)arsane,C21H21As,1.62
tris(4-methylphenyl)bismuthane,C21H21Bi,0.62
tris(4-methylphenyl)phosphane,C21H21P,1.96
tris(4-methylphenylthio)methane,C22H22S3,3
tris(4-nitrophenyl)methane,C19H13N3O6,3.23
"tris(5,6-benzo-N-n-propylsalicylaldimino)cobalt(III)",C42H42CoN3O3,3.96
tris(5-chloro-N-n-propylsalicylaldimino)cobalt(III),,4.98
tris(chloromethyl)-phosphine oxide,C3H6Cl3OP,2.34
tris(dimethylamino)phosphine,C6H18N3P,1.42
tris(dimethylamino)phosphine sulfide,C6H18N3PS,4.47
tris(dimethylamino)phosphite,C6H18N3O3P,1.32
tris(N-phenylsalicylaldimino)cobalt(III),,3.7
tris-(p-tert-butylphenylthio)methane,C31H40S3,3.3
trisilylamine,H9NSi3,0
trispyrazoleindium trichloride,C9H12Cl3InN6,7.38
trispyrazoleindium triiodide,C9H12I3InN6,5.24
tristearin,C57H110O6,2.7
tungsten pentacarbonyl dimethylsulfoxide,C7H6O6SW,4.82
tungsten pentacarbonyl triphenylphosphine,C23H11O5PW,5.36
undecafluorocyclohexane,C6HF11,1.64
undecane,C11H24,0
undecanenitrile,C11H21N,3.38
undecanol,C11H24O,1.7
uranium hexafluoride,F6U,0
urea,CH4N2O,4.38
vinyl acetate,C4H6O2,1.61
vinyl butyl sulfoxide,C6H12OS,3.78
vinyl picolinate,C8H7NO2,2.72
vinyl quinoline-8-carboxylate,C12H9NO2,3.67
vinylsilatrane,C8H15NO3Si,5.88
water,H2O,1.87
xanthene,C13H10O,1.13
xanthone,C13H8O2,2.99
xenon,Xe,0
zincpyrrolecarbaldehydemesityliminate,C28H30N4Zn,3.68
"[(1E)-buta-1,3-dienyl]-triethylsilane",C10H20Si,0.47
"[(1E)-buta-1,3-dienyl]-trimethylsilane",C7H14Si,0.29
[(E)-2-bromoethenyl]benzene,C8H7Br,1.56
[(E)-2-fluoroethenyl]benzene,C8H7F,1.36
"[2-(2,4,6-trimethylbenzoyl)phenyl]-(2,4,6-trimethylphenyl)methanone",C26H26O2,4.22
"[3-(2,4,6-trimethylbenzoyl)phenyl]-(2,4,6-trimethylphenyl)methanone",    ⋮,3.59
"[4-(2,4,6-trimethylbenzoyl)phenyl]-(2,4,6-trimethylphenyl)methanone",    ⋮,3.14