Name,Formula,Dipole momentμ debye
"2-methyl-1,3-oxazole",C4H5NO,1.37
"2-methyl-1,3-pentadiene",C6H10,0.65
2-methyl-1-butanol,C5H12O,1.88
2-methyl-1-buten-3-yne,C5H6,0.51
2-methyl-1-butene,C5H10,0.51
2-methyl-1-heptanol,C8H18O,1.62
2-methyl-1-nitro-1-propene,C4H7NO2,4.12
2-methyl-1-penten-3-yne,C6H8,0.65
2-methyl-1-phenylpyrazol-3-one,C10H10N2O,5.03
2-methyl-1-propanol,C4H10O,1.79
2-methyl-1-propen-1-one,C4H6O,1.94
"2-methyl-2,3-pentadiene",C6H10,0.52
"2-methyl-2,4-pentanediol",C6H14O2,2.1
2-methyl-2-butanethiol,C5H12S,1.58
2-methyl-2-butanol,C5H12O,1.8
2-methyl-2-butene,C5H10,0.5
2-methyl-2-nitropropane,C4H9NO2,3.74
2-methyl-2-phenylpropane,C10H14,0.45
2-methyl-2-propanamine,C4H11N,1.15
2-methyl-2-propanethiol,C4H10S,1.59
2-methyl-2-propanol,C4H10O,1.31
"2-methyl-2-thiono-1,3,2-dioxaphosphorinane",C4H9O2PS,3.9
2-methyl-3-heptanol,C8H18O,1.62
2-methyl-3-nitro-1-(sulfinylamino)benzene,C7H6N2O3S,2
2-methyl-3-nitrophenol,C7H7NO3,5.21
"2-methyl-3-phenyl-1,3,2-oxazaphospholidine oxide",C9H12NO2P,4.67
2-methyl-4-acetylaminopyrimidine,C7H9N3O,2.52
2-methyl-4-dimethylaminopyrimidine,C7H11N3,3.62
2-methyl-4-methoxypyrimidine,C6H8N2O,1.4
2-methyl-4-methylsulfanylpyrimidine,C6H8N2S,1.61
2-methyl-4-nitro-1-(sulfinylamino)benzene,C7H6N2O3S,3.36
2-methyl-4-nitroaniline,C7H8N2O2,6.36
2-methyl-5-nitroaniline,C7H8N2O2,5.3
2-methyl-5-nitrophenylsulfonyl chloride,C7H6ClNO4S,4.86
2-methyl-6-phenyl-4H-pyran-4-one,C12H10O2,4.61
2-methyl-6-phenyl-4H-pyran-4-thione,C12H10OS,5.22
2-methylaniline,C7H9N,1.3
2-methylbenzaldehyde,C8H8O,2.84
2-methylbenzoic acid,C8H8O2,1.7
2-methylbenzonitrile,C8H7N,3.77
2-methylbenzophenone,C14H12O,2.77
2-methylbenzothiazole,C8H7NS,1.33
2-methylbenzotriazole,C7H7N3,0.49
2-methylbut-3-enenitrile,C5H7N,3.54
2-methylbutane,C5H12,0.12
2-methylcyclohexanol,C7H14O,1.95
2-methylcyclohexene-1-carbonitrile,C8H11N,4.26
2-methylfuran,C5H6O,0.72
2-methylhexane,C7H16,0
2-methylnaphthalene,C11H10,0.44
2-methyloctanenitrile,C9H17N,3.69
2-methyloctanoic acid,C9H18O2,0.71
2-methyloxazolidine,C4H9NO,1.32
2-methylpentane,C6H14,0
2-methylphenol,C7H8O,1.44
2-methylphenyl acetate,C9H10O2,1.67
2-methylphenyl selenocyanate,C8H7NSe,4.07
2-methylprop-2-en-1-ol,C4H8O,1.3
2-methylpropanal,    ⋮,2.69
2-methylpropanenitrile,C4H7N,4.29
2-methylpropanoic acid,C4H8O2,1.08
2-methylpropenal,C4H6O,2.68
2-methylpropenoic acid,C4H6O2,1.65
2-methylpropyl 2-methylpropanoate,C8H16O2,1.97
2-methylpropyl acetate,C6H12O2,1.86
2-methylpropyl ethylphosphinate,C6H15O2P,3.41
2-methylpropyl formate,C5H10O2,1.89
2-methylpropylamine,C4H11N,1.15
2-methylpropylbenzene,C10H14,0.4
2-methylpyridine,C6H7N,1.91
2-methylpyrimidine,C5H6N2,1.68
2-methylpyrrole,C5H7N,1.95
2-methylquinazoline,C9H8N2,2.2
2-methylquinoline,C10H9N,1.94
2-methylselenophene,C5H6Se,0.56
2-methylsulfanyl-1H-benzimidazole,C8H8N2S,2.99
2-methylsulfanylfuran,C5H6OS,1.6
2-methylsulfanylselenophene,C5H6SSe,1.37
2-methylsulfanyltellurophene,C5H6STe,1.3
2-methylsulfanylthiophene,C5H6S2,1.47
2-methyltellurophene,C5H6Te,0.64
2-methyltetrahydrofuran,C5H10O,1.38
2-methylthiophene,C5H6S,0.67
2-methylthiophenol,C7H8S,1.01
"2-morpholinomethyl-(3aR,7aS)-3a,4,7,7a-tetrahydroisoindole-1,3-dione",C13H18N2O3,2.47
"2-naphth-2-yl-4-phenyl-5,6,7,8-tetrahydro-2H-thiochromene",C25H22S,1.3
2-naphthol,C10H8O,1.56
2-naphthylamine,C10H9N,1.75
2-naphthylidene-4-nitroaniline,C16H12N2O2,8.98
2-nitro-1-propanol,C3H7NO3,3.44
2-nitro-2-butene,C4H7NO2,3.92
2-nitro-2-pentene,C5H9NO2,3.96
2-nitro-N-phenylaniline,C12H10N2O2,4.18
2-nitroaniline,C6H6N2O2,4.36
2-nitroanisole,C7H7NO3,4.83
2-nitrobenzaldehyde,C7H5NO3,4.3
2-nitrobenzoic acid,C7H5NO4,4.07
2-nitrobenzonitrile,C7H4N2O2,6.24
2-nitrobenzyl chloride,C7H6ClNO2,3.94
2-nitrobiphenyl,C12H9NO2,3.81
2-nitrofluoren-9-one,C13H7NO3,5.44
2-nitrohydroquinone,C6H5NO4,3.3
2-nitromesitylene,C9H11NO2,3.68
2-nitrooctane,C8H17NO2,3.58
2-nitrophenol,C6H5NO3,3.01
2-nitrophenyl ether,C12H8N2O5,6.69
2-nitrophenyl isocyanate,C7H4N2O3,5.22
2-nitropropane,C3H7NO2,3.76
2-nitropropene,C3H5NO2,3.18
2-nitropyrrole,C4H4N2O2,4.33
2-nitroso-1-naphthol,C10H7NO2,4.36
"2-nitroso-2,5-dimethylhexane",C8H17NO,2.51
2-nitrothionylaniline,C6H6N2O3S,3.74
2-nitrothiophenol,C6H5NO2S,4.47
2-nitrotoluene,C7H7NO2,3.7
2-octanol,C8H18O,1.13
2-octanone,C8H16O,2.7
2-octyl acetate,C10H20O2,1.93
2-oxabicyclo[3.1.0]hexane,C5H8O,1.71
2-oxazoline,C3H5NO,1.77
2-oxoacetic acid,C2H2O3,1.86
2-oxopropionic acid,C3H4O3,2.3
"2-penta-1,4-dien-3-ylidenepropanedinitrile",C8H6N2,5.12
2-pentanol,C5H12O,1.66
2-pentanone,C5H10O,2.7
"2-pentoxy-1,3,2-dioxaphospholane",C7H15O3P,1.94
2-pentylpyridine,C10H15N,1.9
"2-phenoxy-1,3,2-dioxaphospholane",C8H9O3P,2.24
"2-phenoxy-1,3,2-dioxaphosphorinane",C9H11O3P,2.75
2-phenoxybiphenyl,C18H14O,1.14
"2-phenyl-1,3-dioxane-4,6-dione",C10H8O4,3.33
"2-phenyl-1,3-indanedione",C15H10O2,2.9
"2-phenyl-1,3-oxazolidine",C9H11NO,1.31
2-phenyl-1-indanone,C15H12O,2.81
"2-phenyl-3,4,4a,5,6,7,8,8a-octahydro-2H-thiochromene",C15H20S,1.91
2-phenyl-4-hydroxypyrimidine,C10H8N2O,3
2-phenyl-4-mercaptopyrimidine,C10H8N2S,3.71
2-phenyl-4-methylaminopyrimidine,C11H11N3,3.52
2-phenyl-5-acetylisoxazolidine,C11H13NO2,2.95
2-phenylacetonitrile,C8H7N,3.59
2-phenylbenzothiazole,C13H9NS,0.94
2-phenylchromone,C15H10O2,4.07
2-phenylethanol,C8H10O,1.6
2-phenylindole,C14H11N,3.95
2-phenylnaphthalene,C16H12,0
2-phenylpyridine,C11H9N,1.94
2-phenylpyrrole,C10H9N,1.66
2-phenylquinoline,C15H11N,1.77
2-phenylsulfonylphenol,C12H10O3S,5.24
2-phenylthiazole,C9H7NS,1.21
2-phenylthiobiphenyl,C18H14S,1.37
"2-piperidinomethyl-(3aR,7aS)-3a,4,7,7a-tetrahydroisoindole-1,3-dione",C14H20N2O2,2.19
2-propan-2-yloxyoxane,C8H16O2,1.33
2-propanethiol,C3H8S,1.55
2-propanol,C3H8O,1.59
2-propanone,C3H6O,2.69
2-propen-1-amine,C3H7N,1.25
2-propen-1-ol,C3H6O,1.6
2-propene-1-thiol,C3H6S,1.33
2-propenenitrile,C3H3N,3.9
2-propionyl-3-phenylisoxazolidine,C12H15NO2,2.97
"2-propoxy-1,3,2-dioxaphospholane",C5H11O3P,2.31
"2-propoxy-4-methyl-1,3,2-dioxaphosphorinane",C7H15O3P,3.08
2-propoxyoxane,C8H16O2,1.22
"2-propyl-2-nitro-1,3-propanediol",C6H13NO4,3.49
2-propylhexanenitrile,C9H17N,3.71
2-propylhexanoic acid,C9H18O2,0.71
2-propylpyridine,C8H11N,1.91
2-propylthiotetrahydropyran,C8H16OS,1.46
2-propyn-1-amine,C3H5N,0.74
2-propynol,C3H4O,1.74
2-pyridin-2-yldisulfanylpyridine,C10H8N2S2,3.99
2-pyridselenone,C5H5NSe,2.87
2-pyridyl benzoate,C12H9NO2,2.23
2-pyridyl pyridine-3-carboxylate,C11H8N2O2,3.02
2-pyridyl pyridine-4-carboxylate,    ⋮,3.41
2-pyrrolidone,C4H7NO,2.3
"2-pyrryl-1,3,2-dioxaphospholane",C6H8NO2P,2.64
"2-tert-butoxy-1,3,2-dioxaphospholane",C6H13O3P,1.9
"2-tert-butoxy-4,4,5,5-tetramethyl-1,3,2-dioxaphospholane",C10H21O3P,2.56
2-tert-butoxyselenophene,C8H12OSe,1.76
"2-tert-butyl-1,3-dithian",C8H16S2,1.82
"2-tert-butyl-5-(4-chlorophenyl)-1,3-dithian",C14H19ClS2,1.36
2-tert-butylphenol,C10H14O,1.35
2-thiophen-2-ylfuran,C8H6OS,3.42
2-tolyldiethoxyboron,C11H17BO2,1.55
2-undecanone,C11H22O,2.69
2-[(2-methylpropan-2-yl)oxy]oxane,C9H18O2,1.44
2-[(4-chlorophenyl)methylidene]propanedinitrile,C10H5ClN2,4.17
2-[(4-dimethylaminophenyl)methylidene]propanedinitrile,C12H11N3,8.8
2-[(4-methoxyphenyl)methylidene]propanedinitrile,C11H8N2O,6.37
2-[(4-nitrophenyl)methylidene]propanedinitrile,C10H5N3O2,3.1
"2-[2,3-di(phenyl)-1-cycloprop-2-enylidene]propanedinitrile",C18H10N2,7.54
2-[di(phenyl)methylidene]propanedinitrile,C16H10N2,5.19
"3',4'-dichloroacetophenone",C8H6Cl2O,2.53
"3',4'-dimethylacetophenone",C10H12O,3.25
3'-bromoacetophenone,C8H7BrO,2.82
3'-nitroacetophenone,C8H7NO3,3.57
"3,3'-(nitroimino)bis-propanenitrile",C6H8N4O2,4.02
"3,3'-dichlorobiphenyl",C12H8Cl2,1.73
"3,3'-dinitrobiphenyl",C12H8N2O4,4.08
"3,3'-dipyridylamine",C10H9N3,2.6
"3,3,3-trichloroprop-1-ene",C3H3Cl3,1.56
"3,3,3-trifluoroprop-1-en-2-ylbenzene",C9H7F3,2.25
"3,3,3-trifluoropropanol",C3H5F3O,2.03
"3,3,3-trifluoropropene",C3H3F3,2.45
"3,3,3-trifluoropropyne",C3HF3,2.36
"3,3,5-trimethyl-5-phenylcyclohexanone",C15H20O,3.08
"3,3,5-trimethylcyclohexanone",C9H16O,2.98
"3,3,6,6-tetramethyloctanedioic anhydride",C12H20O3,4.1
"3,3,7,7-tetramethylnonanedioic anhydride",C13H22O3,3.7
"3,3,9,9-tetramethyl-2,4,8,10-tetraoxaspiro[5.5]undecane",C11H20O4,2.26
"3,3-bis(chloromethyl)oxetane",C5H8Cl2O,1.07
"3,3-dichloro-2,4-pentanedione",C5H6Cl2O2,2.73
"3,3-difluorocyclopropene",C3H2F2,2.98
"3,3-difluoroprop-1-en-2-ylbenzene",C9H8F2,2.08
"3,3-dimethyl-1-butyne",C6H10,0.66
"3,3-dimethyl-2-butanone",C6H12O,2.75
"3,3-dimethylcyclohexanone",C8H14O,2.92
"3,3-dimethylcyclopropene",C5H8,0.29
"3,3-dimethylpentane",C7H16,0
"3,3-dimethylpentanedioic anhydride",C7H10O3,5
"3,4'-bipyridyl",C10H8N2,2.38
"3,4'-dimethylbenzophenone",C15H14O,3.25
"3,4,5-tribromopyridine",C5H2Br3N,0.58
"3,4,5-trimethylisoxazole",C6H9NO,3.4
"3,4-dibromopyridine",C5H3Br2N,1.16
"3,4-dibromoselenophene",C4H2Br2Se,2.05
"3,4-dibromothiophene",C4H2Br2S,1.59
"3,4-dichloroaniline",C6H5Cl2N,3.65
"3,4-dichlorobenzophenone",C13H8Cl2O,3.06
"3,4-dichlorotrifluoromethylbenzene",C7H3Cl2F3,1.51
"3,4-dicyanoselenophene",C6H2N2Se,6.49
"3,4-diformylselenophene",C6H4O2Se,4.72
"3,4-dihydro-2H-pyran",C5H8O,1.4
"3,4-diiodo-2,5-dimethylpyrrole",C6H7I2N,4
"3,4-dimethoxyphenyltrichlorotellurium",C8H9Cl3O2Te,4.36
"3,4-dimethylbenzophenone",C15H14O,3.34
"3,4-dimethylphenol",C8H10O,1.56
"3,4-dimethylphenyltrichlorotellurium",C8H9Cl3Te,4.01
"3,4-dimethylpyridine",C7H9N,1.87
"3,4-dimethylthiophenol",C8H10S,1.63
"3,4-dinitroaniline",C6H5N3O4,8.96
"3,4-dinitrophenol",C6H4N2O5,6.87
"3,4-dinitrotoluene",C7H6N2O4,6.26
"3,5,6-triphenyl-1,2,4-triazine",C21H15N3,3.1
"3,5,6-triphenyl-1,2,4-triazine-1-oxide",C21H15N3O,3.68
"3,5,6-triphenyl-1,2,4-triazine-2-oxide",    ⋮,4.08
"3,5,7-tribromo-2-hydroxy-2,4,6-cycloheptatrien-1-one",C7H3Br3O2,1.84
"3,5-di(p-chlorophenyl)-cyclohex-2-en-1-one",C18H14Cl2O,1.8
"3,5-dibromo-1,2-benzoquinone-2-diazide",C6H2Br2N2O,2.92
"3,5-dibromoaniline",C6H5Br2N,3.42
"3,5-dibromobenzoyl bromide",C7H3Br3O,1.66
"3,5-dibromopyridine",C5H3Br2N,1.02
"3,5-dibromotoluene",C7H6Br2,1.86
"3,5-dichloroaniline",C6H5Cl2N,2.88
"3,5-dichlorobenzaldehyde",C7H4Cl2O,1.93
"3,5-dichlorophenol",C6H4Cl2O,2.08
"3,5-dichloropyridine",C5H3Cl2N,0.95
"3,5-dichlorotoluene",C7H6Cl2,1.9
"3,5-dimethoxybenzaldehyde",C9H10O3,3.07
"3,5-dimethyl-1H-pyrazole",C5H8N2,2.31
"3,5-dimethyl-2,4,6-triphenyl-4H-thiopyran",C25H22S,1.76
"3,5-dimethyl-2,6-diphenyl-2H-thiopyran",C19H18S,1.73
"3,5-dimethyl-2,6-diphenyl-4H-thiopyran",    ⋮,1.83
"3,5-dimethyl-4-isoxazolecarboxylic acid",C6H7NO3,3.31
"3,5-dimethylaniline",C8H11N,1.27
"3,5-dimethylphenol",C8H10O,1.5
"3,5-dimethylpyridine",C7H9N,2.69
"3,5-dinitroaniline",C6H5N3O4,5.88
"3,5-dinitrobenzonitrile",C7H3N3O4,1.6
"3,5-dinitrobenzoyl chloride",C7H3ClN2O5,1.21
"3,5-dinitrophenol",C6H4N2O5,4.54
"3,5-dinitrotoluene",C7H6N2O4,4.33
"3,5-diphenyl-1H-pyrazole",C15H12N2,2.3
"3,5-diphenylcyclohex-2-en-1-one",C18H16O,3.9
"3,5-pyridinedicarboxylic acid",C7H5NO4,3.91
"3,6,9-trioxaundecane",C8H18O3,1.96
"3,6-bis(dimethylamino)phthalimide",C12H15N3O2,2.2
"3,6-di(piperidin-1-yl)pyridazine",C14H22N4,3.74
"3,6-diacetamidophthalimide",C12H11N3O4,5.5
"3,6-diaminophthalimide",C8H7N3O2,2.14
"3,6-dichloropyridazine",C4H2Cl2N2,4.11
"3,6-dihydro-1,2-dioxin",C4H6O2,2.33
"3,6-dihydro-2H-pyran",C5H8O,1.28
"3,6-dimethylpyridazine",C6H8N2,3.99
"3,6-dinitrocarbazole",C12H7N3O4,6.6
"3,7,10-trimethyl-2,8,9-trioxa-5-aza-1-borabicyclo[3.3.3]undecane",C9H18BNO3,6.61
"3,7-dibromo-2-hydroxy-2,4,6-cycloheptatrien-1-one",C7H4Br2O2,3.57
"3,7-dinitroso-1,3,5,7-tetrazabicyclo[3.3.1]nonane",C5H10N6O2,6.8
3-(2-nitrophenyl)pyridine,C11H8N2O2,4.36
3-(3-nitrophenyl)pyridine,    ⋮,3.69
3-(4-bromophenyl)-1-phenyl-1-propanone,C15H13BrO,3.04
"3-(4-bromophenyl)-5,6-di(phenyl)-1,2,4-triazine",C21H14BrN3,3.94
3-(4-bromophenyl)cyclohexan-1-one,C12H13BrO,2.7
3-(4-bromophenyl)pentandioic anhydride,C11H9BrO3,3.7
3-(4-chlorophenyl)-1-phenyl-1-propanone,C15H13ClO,3.04
"3-(4-chlorophenyl)-5,6-di(phenyl)-1,2,4-triazine",C21H14ClN3,3.91
3-(4-chlorophenyl)pentanoic anhydride,C22H24Cl2O3,3.66
3-(4-fluorophenyl)pentandioic anhydride,C11H9FO3,3.82
3-(4-methylphenyl)-1-phenyl-1-propanone,C16H16O,2.95
3-(4-nitrophenoxy)-3-thiono-1-thia-3-phosphethane,C8H8NO3PS2,3.98
"3-(4-nitrophenyl)-2,5,5-tri(phenyl)-1,2-oxazolidine",C27H22N2O3,4.35
3-(4-nitrophenyl)pentanoic anhydride,C22H24N2O7,2.53
3-(4-nitrophenyl)pyridine,C11H8N2O2,3.79
3-(aminomethyl)pyridine,C6H8N2,2.52
3-(chloromethyl)but-3-enenitrile,C5H6ClN,3.13
3-(furan-2-carbonyl)furan-2-carbaldehyde,C10H6O4,5.7
"3-(p-chlorophenyl)-1,5-diphenyl-2-pyrazoline",C21H17ClN2,3.39
3-(p-chlorophenyl)-5-phenylcyclohex-2-en-1-one,C18H15ClO,3.4
3-2-thiophenoylfuran,C9H6O2S,3.11
3-acetamido-N-methylphthalimide,C11H10N2O3,2.4
3-acetamidophthalamide,C10H11N3O3,2.4
3-acetylphenol,C8H8O2,3.23
3-acetylpyridine,C7H7NO,2.44
3-amino-1-propanol,C3H9NO,2.69
3-amino-N-methylphthalimide,C9H8N2O2,2.7
3-aminobenzenesulfonamide,C6H8N2O2S,5.67
3-aminophenol,C6H7NO,1.85
3-aminophthalimide,C8H6N2O2,2.6
3-aminopropoxytriethoxysilane,C9H23NO4Si,2.32
3-aminopropoxytriethylsilane,C9H23NOSi,1.75
3-aminopyridine,C5H6N2,3.11
3-aminoquinoline,C9H8N2,3.04
3-anisaldehyde,C8H8O2,2.94
3-benzoylpyridine,C12H9NO,2.94
"3-bromo-1,1,1,3-tetrachloropropane",C3H3BrCl4,0.94
"3-bromo-1,1,1-trichloro-3-fluoropropane",C3H3BrCl3F,1.11
"3-bromo-1,1,1-trichloro-3-methylbutane",C5H8BrCl3,1.65
"3-bromo-1,1,1-trichloro-4,4-dimethylpentane",C7H12BrCl3,2.37
"3-bromo-1,1,1-trichlorobutane",C4H6BrCl3,1.42
"3-bromo-1,1,1-trichloropropane",C3H4BrCl3,0.7
3-bromo-2-ethoxypentane,C7H15BrO,2.13
3-bromo-2-furaldehyde,C5H3BrO2,3.49
"3-bromo-2-hydroxy-2,4,6-cycloheptatrien-1-one",C7H5BrO2,3.91
"3-bromo-4,5-dichlorotrifluoromethylbenzene",C7H2BrCl2F3,0.87
3-bromo-4-ethoxyheptane,C9H19BrO,2.11
3-bromoaniline,C6H6BrN,2.99
3-bromobenzaldehyde,C7H5BrO,2.64
3-bromobenzamide,C7H6BrNO,3.4
3-bromobenzoic acid,C7H5BrO2,2.17
3-bromobiphenyl,C12H9Br,1.64
3-bromochromen-2-one,C9H5BrO2,4.8
3-bromocyclohexene,C6H9Br,2.53
3-bromoheptane,C7H15Br,2.04
3-bromooctane,C8H17Br,2.17
3-bromopentane,C5H11Br,2.29
3-bromophenol,C6H5BrO,2.15
3-bromophenyl selenocyanate,C7H4BrNSe,3.62
3-bromopropanenitrile,C3H4BrN,3.29
3-bromopropanol,C3H7BrO,2.21
3-bromopropene,C3H5Br,1.4
3-bromopropyne,C3H3Br,1.54
3-bromopyridine,C5H4BrN,1.99
3-bromoselenophene,C4H3BrSe,1.46
3-bromothiophene,C4H3BrS,1.13
3-bromothiophenol,C6H5BrS,1.51
3-bromotoluene,C7H7Br,1.75
3-butenenitrile,C4H5N,3.42
3-butylpyridine,C9H13N,2.47
3-butyn-2-one,C4H4O,2.4
"3-chloro-1,1,1-trifluoropropane",C3H4ClF3,1.59
"3-chloro-2,4-pentanedione",C5H7ClO2,1.34
"3-chloro-3-cyclohexene-1,2-dione",C6H5ClO2,3.14
3-chloro-3-methylpentane,C6H13Cl,2.2
3-chloro-4'-hydroxyazobenzene,C12H9ClN2O,2.56
"3-chloro-5,5-dimethylhexane-2,4-dione",C8H13ClO2,2.91
3-chloro-6-methylpyridazine,C5H5ClN2,4.48
"3-chloro-N,N-dimethylaniline",C8H10ClN,3.1
3-chloroacetyl-6-chlorobenzoxazolinethione,C9H5Cl2NO2S,3.94
3-chloroacetylbenzoxazolinethione,C9H6ClNO2S,5.4
3-chloroaniline,C6H6ClN,2.43
3-chlorobenzaldehyde,C7H5ClO,2.44
3-chlorobenzamide,C7H6ClNO,3.67
3-chlorobenzoic acid,C7H5ClO2,2.22
3-chlorobenzonitrile,C7H4ClN,3.42
3-chlorobenzophenone,C13H9ClO,3.13
3-chlorobenzoyldiazomethane,C8H5ClN2O,3.34
3-chlorobenzyl chloride,C7H6Cl2,2.07
3-chlorobiphenyl,C12H9Cl,1.62
3-chloroheptane,C7H15Cl,2.04
3-chlorohexane,C6H13Cl,2.1
3-chlorooctane,C8H17Cl,2.17
3-chlorophenol,C6H5ClO,2.11
3-chlorophenyl 4-nitrophenyl sulfide,C12H8ClNO2S,3.83
3-chlorophenyl-diphenylphosphine,C18H14ClP,2.13
3-chlorophenylmercury chloride,C6H4Cl2Hg,2.91
3-chlorophenylsilane,C6H7ClSi,1.42
3-chlorophthalic anhydride,C8H3ClO3,5.31
3-chlorophthalimide,C8H4ClNO2,2.41
"3-chloropropane-1,2-diyl dinitrate",C3H5ClN2O6,3.05
3-chloropropanol,C3H7ClO,2.23
3-chloropropene,C3H5Cl,1.94
3-chloropropyne,C3H3Cl,1.67
3-chloropyridazine,C4H3ClN2,4.42
3-chloropyridine,C5H4ClN,2.02
3-chloroquinoline,C9H6ClN,2.19
3-chlorothiophenol,C6H5ClS,1.56
3-chlorotrifluoromethylbenzene,C7H4ClF3,2.22
3-cyanobenzaldehyde,C8H5NO,3.45
3-cyanopyridine,C6H4N2,3.48
3-cyanoselenophene,C5H3NSe,3.97
3-cyclopenten-1-one,C5H6O,2.79
3-dimethylamino-1-phenylpropan-1-one,C11H15NO,2.88
3-dimethylaminophthalimide,C10H10N2O2,2.7
3-docosanoxypropanol,C25H52O2,2.37
3-ethenoxypropyl-trimethylsilane,C8H18OSi,1.2
3-ethenylsulfanylpropyl-trimethylsilane,C8H18SSi,1.38
3-ethyl-2-thiouracil,C6H8N2OS,3.61
3-ethylpentane,C7H16,0
3-fluorobenzaldehyde,C7H5FO,2.8
3-fluorobenzenethiol,C6H5FS,1.48
3-fluorobenzoic acid,C7H5FO2,2.18
3-fluorobiphenyl,C12H9F,1.57
3-fluorooctane,C8H17F,1.82
3-fluorophenyl-bis(4-fluorophenyl)phosphine,C18H12F3P,1.96
3-fluorophthalic anhydride,C8H3FO3,5.44
3-fluorophthalimide,C8H4FNO2,2.6
3-fluoropropene,C3H5F,1.76
3-fluoropropyne,C3H3F,1.73
3-fluoropyridine,C5H4FN,2.09
3-fluorotrichloromethylbenzene,C7H4Cl3F,1.84
3-formyl-4-bromoselenophene,C5H3BrOSe,3.18
3-formyl-4-bromothiophene,C5H3BrOS,2.86
3-formylpyridine,C6H5NO,1.44
3-formylselenophene,C5H4OSe,2.97
"3-furan-2-yl-1,5-di(phenyl)-4,5-dihydropyrazole",C19H16N2O,2.74
3-heptanol,C7H16O,1.71
3-heptanone,C7H14O,2.78
3-hexadecyloxypropanol,C19H40O2,2.38
"3-hexene-2,5-dione",C6H8O2,2.85
3-hydroxybenzoic acid,C7H6O3,2.39
3-hydroxymethylpyridine,C6H7NO,2.61
3-hydroxypropanenitrile,C3H5NO,3.17
3-iodobiphenyl,C12H9I,1.46
3-iodoheptane,C7H15I,1.93
3-iodooctane,C8H17I,2.11
3-isothiocyanatopropene,C4H5NS,3.3
3-mercaptoselenophene,C4H4SSe,1.25
3-methoxy-1-methylbenzene,C8H10O,1.25
3-methoxy-3-oxa-1-phosphethane,,2.76
3-methoxy-3-thiono-1-thia-3-phosphethane,    ⋮,2.68
"3-methoxy-N,N-dimethylaniline",C9H13NO,2.18
3-methoxyaniline,C7H9NO,1.71
3-methoxybenzenethiol,C7H8OS,1.74
3-methoxyphenol,C7H8O2,1.81
3-methoxyphenyl selenocyanate,C8H7NOSe,4.06
3-methoxypropanenitrile,C4H7NO,3.47
"3-methyl-1,2-cyclohexanedione",C7H10O2,2.76
"3-methyl-1,3-pentadiene",C6H10,0.63
"3-methyl-1,5-diphenyl-pyrazole",C16H14N2,2.48
3-methyl-1-butanol,C5H12O,1.7
3-methyl-1-butene,C5H10,0.4
3-methyl-1-butyne,C5H8,0.72
3-methyl-1-nitro-1-butene,C5H9NO2,4.01
3-methyl-1H-benzimidazole-2-thione,C8H8N2S,4.15
3-methyl-1H-diazirine,C2H4N2,2.02
"3-methyl-2,4,6-triphenyl-4H-thiopyran",C24H20S,1.54
3-methyl-2-benzoxazolinone,C8H7NO2,4.18
3-methyl-2-butanone,C5H10O,2.79
3-methyl-2-butenenitrile,C5H7N,4.61
3-methyl-2-cyclopenten-1-one,C6H8O,4.33
3-methyl-2-furaldehyde,C6H6O2,3.93
3-methyl-2-nitro-2-butene,C5H9NO2,3.76
3-methyl-2-nitrophenol,C7H7NO3,4
3-methyl-3-(4-chlorophenyl)pentanoic anhydride,C24H28Cl2O3,4.59
3-methyl-3-heptanol,C8H18O,1.26
"3-methyl-3H-imidazo-(4,5-b)pyridine",C7H7N3,1.85
3-methyl-4-nitro-5-chloropyrazole,C4H4ClN3O2,5.92
3-methyl-4-nitrophenol,C7H7NO3,5.19
3-methyl-5-methylsulfanyl-1-phenylpyrazole,C11H12N2S,2.8
3-methylaminophthalimide,C9H8N2O2,2.7
3-methylaniline,C7H9N,1.3
3-methylbenzaldehyde,C8H8O,2.93
3-methylbenzonitrile,C8H7N,4.18
3-methylbenzophenone,C14H12O,3.01
3-methylbutanenitrile,C5H9N,3.62
3-methylbutanoic acid,C5H10O2,0.63
3-methylbutyl 2-methylpropanoate,C9H18O2,1.94
3-methylbutyl acetate,C7H14O2,1.84
3-methylbutyl benzoate,C12H16O2,2.2
3-methylbutyl formate,C6H12O2,1.84
3-methylbutylamine,C5H13N,1.51
3-methylcyclohexanol,C7H14O,1.9
3-methylcyclopentanone,C6H10O,3.14
3-methylfuran,C5H6O,1.03
3-methylhexane,C7H16,0
3-methyloxazolidin-2-one,C4H7NO2,4.1
3-methyloxolan-2-one,C5H8O2,4.56
3-methylphenol,C7H8O,1.6
3-methylphenyl selenocyanate,C8H7NSe,4.14
3-methylphthalic anhydride,C9H6O3,5.46
3-methylphthalimide,C9H7NO2,2.39
3-methylpyridazine,C5H6N2,3.86
3-methylpyridine,C6H7N,2.41
3-methylpyrimidin-4-one,C5H6N2O,2.24
3-methylpyrimidine-4-thione,C5H6N2S,2.82
3-methylquinoline,C10H9N,2.29
3-methylselenophene,C5H6Se,0.78
3-methylthietane,C4H8S,2.05
3-methylthiophene,C5H6S,0.91
3-methylthiophenol,C7H8S,1.32
3-nitro-1-naphthylamine,C10H8N2O2,5.47
3-nitro-N-phenylaniline,C12H10N2O2,4.93
3-nitro-N-phenylbenzenesulfonamide,C12H10N2O4S,4.78
3-nitroaniline,C6H6N2O2,4.72
3-nitroanisole,C7H7NO3,4.55
3-nitrobenzaldehyde,C7H5NO3,3.39
3-nitrobenzenesulfinic acid,C6H5NO4S,4.26
3-nitrobenzenesulfonamide,C6H6N2O4S,4.97
3-nitrobenzenesulfonyl chloride,C6H4ClNO4S,4.12
3-nitrobenzoic acid,C7H5NO4,4.03
3-nitrobenzonitrile,C7H4N2O2,3.81
3-nitrobenzyl chloride,C7H6ClNO2,3.92
3-nitrobiphenyl,C12H9NO2,3.93
3-nitrooctane,C8H17NO2,3.65