Name,Formula,Dipole momentμ debye
3-nitrophenol,C6H5NO3,4.47
3-nitrophenyl isocyanate,C7H4N2O3,3.42
3-nitrophenyl selenocyanate,C7H4N2O2Se,3.88
3-nitrophthalic anhydride,C8H3NO5,6.73
3-nitrophthalimide,C8H4N2O4,3.9
3-nitroquinoline,C9H6N2O2,4.21
3-nitrotoluene,C7H7NO2,4.2
3-octadecyloxypropanol,C21H44O2,2.39
3-octanol,C8H18O,1.74
3-oxopentyl acetate,C7H12O3,2.32
3-pentanol,C5H12O,1.64
3-pentanone,C5H10O,2.7
3-phenoxy-3-oxa-1-thia-3-phosphetane,,2.8
3-phenoxy-3-thiono-1-thia-3-phosphethane,    ⋮,2.65
3-phenylcyclohexanone,C12H14O,2.9
3-phenylpentandioic anhydride,C11H10O3,4.73
3-phenylpropan-1-ol,C9H12O,1.71
3-phenylpropanol,    ⋮,1.63
3-phenylpyrazole,C9H8N2,2.26
3-phenylpyridine,C11H9N,2.28
3-phenylquinoline,C15H11N,2.14
3-phenylsulfonylphenol,C12H10O3S,5.43
3-propylpyridine,C8H11N,2.45
3-pyridinecarboxylic acid,C6H5NO2,4
3-pyridyl benzoate,C12H9NO2,3.22
3-pyridyl pyridine-3-carboxylate,C11H8N2O2,2.99
3-pyridyl pyridine-4-carboxylate,    ⋮,2.15
3-sulfochlorobenzoic acid,C7H5ClO5S,3.87
"3-tert-butyltetrahydro-1,3-oxazine",C8H17NO,1.83
3-tolyldimethoxyboron,C9H13BO2,1.46
3-[(E)-2-phenylethenyl]pyridazine,C12H10N2,5.82
3a-bromo-3b-methylandrostan-17-one,C20H31BrO,3.89
3a-bromo-3b-methylcholestane,C28H49Br,2.21
"3H-imidazo(4,5-b)-pyridine",C6H5N3,1.99
4'-aminoacetophenone,C8H9NO,4.54
4'-bromoacetophenone,C8H7BrO,2.36
4'-bromoacetophenone oxime,C8H8BrNO,1.22
4'-bromodiazoacetophenone,C8H5BrN2O,3.11
4'-chloroacetophenone,C8H7ClO,2.38
4'-chloroacetophenone oxime,C8H8ClNO,1.22
4'-chlorodiazoacetophenone,C8H5ClN2O,3.08
"4'-hydroxy-2',5'-dimethylacetophenone",C10H12O2,3.17
4'-hydroxyacetophenone oxime,C8H9NO2,2.15
4'-iodoacetophenone,C8H7IO,2.33
4'-methoxyacetophenone,C9H10O2,3.62
4'-methoxydiazoacetophenone,C9H8N2O2,4.3
4'-methylacetophenone,C9H10O,3.16
4'-methylacetophenone oxime,C9H11NO,0.81
4'-methyldiazoacetophenone,C9H8N2O,4.01
4'-nitroacetophenone,C8H7NO3,3.26
4'-nitroacetophenone oxime,C8H8N2O3,4.87
4'-nitrodiazoacetophenone,C8H5N3O3,3.73
"4,4'-azoxydianisole",C14H14N2O3,2.4
"4,4'-biphenyldiyl diacetate",C16H14O4,1.9
"4,4'-bipyridyl",C10H8N2,0.31
"4,4'-bis(chloromethyl)biphenyl",C14H12Cl2,2.25
"4,4'-bis(dimethylamino)biphenyl",C16H20N2,1.25
"4,4'-bis(phenylthio)biphenyl",C24H18S2,1.85
"4,4'-diacetoxybiphenol",C16H14O6,1.9
"4,4'-diacetylbiphenyl",C16H14O2,3.2
"4,4'-diaminobiphenyl",C12H12N2,1.4
"4,4'-dibromobiphenyl",C12H8Br2,0
"4,4'-dichloroazobenzene",C12H8Cl2N2,0.64
"4,4'-dichloroazothiobenzene",,0.74
"4,4'-dichloroazoxybenzene",C12H8Cl2N2O,1.32
"4,4'-dichlorobiphenyl",C12H8Cl2,0
"4,4'-dichlorodiphenyl ether",C12H8Cl2O,1.64
"4,4'-dicyanobiphenyl",C14H8N2,1.14
"4,4'-diethoxyazoxybenzene",C16H18N2O3,2.3
"4,4'-diethoxybiphenyl",C16H18O2,1.9
"4,4'-difluorobiphenyl",C12H8F2,0
"4,4'-dihydroxyazobenzene",C12H10N2O2,2.61
"4,4'-dihydroxybiphenyl",C12H10O2,2.82
"4,4'-dimethoxybenzophenone",C15H14O3,3.9
"4,4'-dimethoxybiphenyl",C14H14O2,1.52
"4,4'-dimethylazothiobenzene",,1.46
"4,4'-dimethylazoxybenzene",C14H14N2O,1.78
"4,4'-dimethylbenzophenone",C15H14O,3.43
"4,4'-dimethylbiphenyl",C14H14,0
"4,4'-dinitrobiphenyl",C12H8N2O4,0
"4,4'-diphenoxybiphenyl",C24H18O2,1.49
"4,4'-dipyridyl disulfide",C10H8N2S2,1.9
"4,4,4-trichloro-2-methylbut-1-ene",C5H7Cl3,1.79
"4,4,5-trimethyl-2-phenylpyrazol-3-one",C12H14N2O,2.83
"4,4,6,6-tetramethyl-2-oxo-1,3,2-dioxathiane",C7H14O3S,4.22
"4,4,8,8-tetrabromotricyclo[5.1.0.03,5]octane",C8H8Br4,0.87
"4,4,8,8-tetrachlorotricyclo[5.1.0.03,5]octane",C8H8Cl4,0.64
"4,4-dichloro-8,8-dibromotricyclo[5.1.0.03,5]octane",C8H8Br2Cl2,0.86
"4,4-dimethyl-1-pentene",C7H14,0.31
"4,5,6,7-tetrahydro-1H-benzimidazole",C7H10N2,3.93
"4,5,6,7-tetrahydro-2-phenylcyclopenta[b]thiopyran",C14H14S,1.55
"4,5-benzisoxazole",C7H5NO,3.06
"4,5-di(phenyl)-1-propylimidazole",C18H18N2,4.17
"4,5-dibromo-2-diazobenzen-1(2H)-one",C6H2Br2N2O,2.9
"4,5-dibromo-2-furaldehyde",C5H2Br2O2,2.42
"4,5-dichloro-1,3-dioxolan-2-one",C3H2Cl2O3,3.47
"4,5-dichlorocyclopent-4-ene-1,3-dione",C5H2Cl2O2,0.76
"4,5-diphenylimidazole",C15H12N2,4.34
"4,6-dimethylchromen-2-one",C11H10O2,5.2
"4,6-dimethylpyrimidine",C6H8N2,2.65
"4,6-dimethylpyrimidine-1-oxide",C6H8N2O,3.86
"4,7-dimethylchromen-2-one",C11H10O2,4.59
"4,7-phenanthroline",C12H8N2,3.63
"4,8-dibromo-1,5-dimethoxynaphthalene",C12H10Br2O2,0.93
"4,8-dichloro-1,5-dimethoxynaphthalene",C12H10Cl2O2,0.95
"4,8-dimethylquinoline",C11H11N,2.13
"4,N,N-trimethylaniline",C9H13N,1.12
4-(1-ethylpropyl)pyridine,C10H15N,2.74
4-(1-methylpropyl)pyridine,C9H13N,2.72
4-(2-chlorophenylazo)-1-naphthol,C16H11ClN2O,4.01
4-(2-methoxyphenylazo)-1-naphthol,C17H14N2O2,5.3
4-(2-methylphenylazo)-1-naphthol,C17H14N2O,2.95
"4-(3,4-dimethoxyphenyl)-2-phenyl-3,4,4a,5,6,7,8,8a-octahydro-2H-thiochromene",C23H28O2S,1.96
"4-(3,4-dimethoxyphenyl)-2-phenyl-3,5,6,7,8,8a-hexahydro-2H-thiochromene",C23H26O2S,1.99
4-(3-chlorophenylazo)-1-naphthol,C16H11ClN2O,3.41
4-(3-methoxyphenylazo)-1-naphthol,C17H14N2O2,3.69
4-(3-methylphenylazo)-1-naphthol,C17H14N2O,3.24
4-(3-nitrophenyl)pyridine,C11H8N2O2,3.41
4-(4'-nitrophenylthio)phenol,C12H9NO3S,4.96
4-(4-bromophenyl)aniline,C12H10BrN,3.33
4-(4-chlorophenyl)-1-methylpiperidine,C12H16ClN,2.34
4-(4-chlorophenylazo)-1-naphthol,C16H11ClN2O,3.2
4-(4-chlorosulfonylphenoxy)benzenesulfonyl chloride,C12H8Cl2O5S2,3.54
"4-(4-dimethylaminophenyl)diselanyl-N,N-dimethylaniline",C16H20N2Se2,4.75
"4-(4-methoxyphenyl)-2-phenyl-3,5,6,7,8,8a-hexahydro-2H-thiochromene",C22H24OS,1.98
"4-(4-methoxyphenyl)-2-phenyl-5,6,7,8-tetrahydro-4H-thiochromene",C22H22OS,2.05
4-(4-methoxyphenylazo)-1-naphthol,C17H14N2O2,2.63
4-(4-methylphenylazo)-1-naphthol,C17H14N2O,2.91
4-(4-nitrophenyl)pyridine,C11H8N2O2,1.93
4-(4-nitrophenyl)sulfanylaniline,C12H10N2O2S,5.8
4-(aminomethyl)pyridine,C6H8N2,2.84
4-(difluoromethoxy)aniline,C7H7F2NO,3.73
4-(difluoromethylsulfanyl)aniline,C7H7F2NS,3.95
4-(difluoromethylsulfinyl)aniline,C7H7F2NOS,5.57
4-(difluoromethylsulfonyl)aniline,C7H7F2NO2S,6.1
4-(dimethylamino)benzonitrile,C9H10N2,6.55
4-acetamido-N-methylphthalimide,C11H10N2O3,4.6
4-acetylphenyl selenocyanate,C9H7NOSe,3.56
4-acetylpyridine,C7H7NO,2.38
4-amino-4'-cyanobiphenyl,C13H10N2,5.65
4-amino-4'-nitrobiphenyl,C12H10N2O2,6.05
4-amino-4'-nitrostilbene,C14H12N2O2,6.5
4-amino-di-N-methylaniline,C8H12N2,1.42
"4-amino-N,N-diethylaniline",C10H16N2,1.42
4-amino-N-methylphthalimide,C9H8N2O2,3.6
4-aminoazobenzene,C12H11N3,2.5
4-aminobenzamide,C7H8N2O,4.7
4-aminobenzenesulfonamide,C6H8N2O2S,6.58
4-aminobenzonitrile,C7H6N2,6.46
4-aminobiphenyl,C12H11N,1.78
4-aminophenyl thiocyanate,C7H6N2S,5.22
4-aminophenylselenocyanate,C7H6N2Se,5.16
4-aminophthalimide,C8H6N2O2,2.6
4-aminopyridine,C5H6N2,3.9
4-aminopyrimidine,C4H5N3,3.95
4-aminoquinoline,C9H8N2,3.99
4-benzoylpyridine,C12H9NO,2.99
"4-benzyl-4,5,6,7-tetrahydro-2-phenylcyclopenta[b]thiopyran",C21H20S,1.31
"4-benzyl-5,6,7,8-tetrahydro-2-phenyl-4H-thiachromene",C22H22S,1.6
"4-bromo-1,2-benzoquinone dioxime",C6H5BrN2O2,2.64
"4-bromo-2,3,4,5,6-pentachloro-2,5-cyclohexadien-1-one",C6BrCl5O,1.74
4-bromo-2-methyl-1-(sulfinylamino)benzene,C7H6BrNOS,1.82
4-bromo-di-N-methylaniline,C8H10BrN,3.35
"4-bromo-N,N-diethylaniline",C10H14BrN,3.76
"4-bromo-N,N-dimethylbenzamide",C9H10BrNO,3.65
4-bromo-N-(4-bromophenyl)diazenylaniline,C12H9Br2N3,1.9
4-bromo-NNO-azoxybenzene,C12H9BrN2O,2.62
4-bromo-ONN-azoxybenzene,    ⋮,0.92
4-bromoaniline,C6H6BrN,3.34
4-bromoazobenzene,C12H9BrN2,1.43
4-bromobenzaldehyde,C7H5BrO,2.22
4-bromobenzamide,C7H6BrNO,3.25
4-bromobenzenesulfonamide,C6H6BrNO2S,4.44
4-bromobenzenesulfonyl chloride,C6H4BrClO2S,3.26
4-bromobenzoic acid,C7H5BrO2,2.1
4-bromobenzonitrile,C7H4BrN,2.66
4-bromobenzophenone,C13H9BrO,2.96
4-bromobenzoyl chloride,C7H4BrClO,2.05
4-bromobenzyl bromide,C7H6Br2,1.64
4-bromobenzyl chloride,C7H6BrCl,1.73
4-bromobenzyltrichlorosilane,C7H6BrCl3Si,1.83
4-bromobiphenyl,C12H9Br,1.64
4-bromocyclohexanone,C6H9BrO,2.37
4-bromoheptane,C7H15Br,2.04
4-bromooctane,C8H17Br,2.17
4-bromophenol,C6H5BrO,2.15
4-bromophenoxybenzene,C12H9BrO,1.98
4-bromophenyl isothiocyanate,C7H4BrNS,1.55
4-bromophenylhydrazine,C6H7BrN2,2.92
4-bromophenylmercury chloride,C6H4BrClHg,1.75
4-bromopyridine,C5H4BrN,0.89
4-bromothioanisole,C7H7BrS,1.77
4-bromothiophenol,C6H5BrS,1.14
4-bromotoluene,C7H7Br,1.87
4-butylpyridine,C9H13N,2.72
"4-chloro-1,2-butadiene",C4H5Cl,2.02
4-chloro-1-methoxy-2-nitrobenzene,C7H6ClNO3,4.58
4-chloro-1-phenylsulfonamidobenzene,C12H10ClNO2S,4.14
4-chloro-2-hydroxybenzaldehyde,C7H5ClO2,2.31
4-chloro-2-methyl-1-(sulfinylamino)benzene,C7H6ClNOS,2.91
4-chloro-2-nitroaniline,C6H5ClN2O2,4.44
4-chloro-2-nitrophenol,C6H4ClNO3,2.34
4-chloro-2-nitrotoluene,C7H6ClNO2,3.63
"4-chloro-3,5-dinitrobenzonitrile",C7H2ClN3O4,0.81
4-chloro-3-methylphenol,C7H7ClO,1.8
4-chloro-3-nitrotoluene,C7H6ClNO2,4.82
4-chloro-4'-hydroxyazobenzene,C12H9ClN2O,2.77
"4-chloro-N,N-dimethylaniline",C8H10ClN,3.32
"4-chloro-N,N-dimethylbenzamide",C9H10ClNO,3.85
4-chloro-N-(4-chlorophenyl)diazenylaniline,C12H9Cl2N3,1.96
4-chloro-N-phenylbenzenesulfonamide,C12H10ClNO2S,3.77
4-chloroaniline,C6H6ClN,2.8
4-chloroazobenzene,C12H9ClN2,1.56
4-chlorobenzaldehyde,C7H5ClO,2.05
4-chlorobenzamide,C7H6ClNO,3.49
4-chlorobenzeneselenol,C6H5ClSe,0.93
4-chlorobenzenesulfinic acid,C6H5ClO2S,3.32
4-chlorobenzenesulfonyl chloride,C6H4Cl2O2S,3.23
4-chlorobenzenesulphonic anhydride,C12H8Cl2O5S2,2.95
4-chlorobenzenesulphonic thioanhydride,C12H8Cl2O4S3,2.86
4-chlorobenzoic acid,C7H5ClO2,2.02
4-chlorobenzoic thioanhydride,C14H8Cl2O2S,2.76
4-chlorobenzonitrile,C7H4ClN,2.5
4-chlorobenzonitrile N-oxide,C7H4ClNO,2.62
4-chlorobenzophenone,C13H9ClO,2.75
4-chlorobenzoyl chloride,C7H4Cl2O,2.02
4-chlorobenzyl bromide,C7H6BrCl,1.75
4-chlorobenzyl chloride,C7H6Cl2,1.74
4-chlorobiphenyl,C12H9Cl,1.6
4-chlorochromen-2-one,C9H5ClO2,4.03
4-chlorocyclohexanone,C6H9ClO,2.35
4-chloroheptane,C7H15Cl,2.04
4-chlorooctane,C8H17Cl,2.08
4-chlorophenol,C6H5ClO,2.25
4-chlorophenyl 4-nitrophenyl sulfide,C12H8ClNO2S,3.4
4-chlorophenyl isocyanate,C7H4ClNO,0.85
4-chlorophenyl isothiocyanate,C7H4ClNS,1.56
4-chlorophenyl phenyl sulfone,C12H9ClO2S,4.45
4-chlorophenyl phenyl sulfoxide,C12H9ClOS,3.97
4-chlorophenyl selenocyanate,C7H4ClNSe,3.31
4-chlorophenyl tert-butyl sulfide,C10H13ClS,1.69
4-chlorophenyl thiocyanate,C7H4ClNS,2.96
4-chlorophenylmercury bromide,C6H4BrClHg,1.58
4-chlorophenylsilane,C6H7ClSi,0.99
4-chlorophthalic anhydride,C8H3ClO3,4.54
4-chloropyridine,C5H4ClN,0.84
4-chloroquinoline,C9H6ClN,0.96
4-chlorothioanisole,C7H7ClS,1.74
4-chlorothiophenol,C6H5ClS,1.16
4-chlorotoluene,C7H7Cl,2.21
4-chlorotrifluoromethylbenzene,C7H4ClF3,1.58
4-cyanobenzaldehyde,C8H5NO,2.48
4-cyanophenol,C7H5NO,4.95
4-cyanopyridine,C6H4N2,1.61
4-cyanopyridine-1-oxide,C6H4N2O,1.22
4-diazonaphthalen-1(4H)-one,C10H6N2O,4.2
4-dimethylamino-3-buten-2-one,C6H11NO,5.1
4-dimethylamino-4'-cyanostilbene,C17H16N2,6.95
4-dimethylamino-4'-nitrostilbene,C16H16N2O2,7.05
4-dimethylaminopyrimidine,C6H9N3,3.88
4-dodecylphenol,C18H30O,1.58
4-ethoxy-2-nitroaniline,C8H10N2O3,3.81
4-ethoxyphenyl selenocyanate,C9H9NOSe,4.7
4-ethoxyphenylcarbonyl selenocyanate,C10H9NO2Se,3.84
4-ethyl-5-methyl-2-phenyl-1H-pyrazol-3-one,C12H14N2O,3.39
4-ethylbenzenethiol,C8H10S,1.45
4-ethylpyridine,C7H9N,2.65
4-fluoro-N-(4-fluorophenyl)aniline,C12H9F2N,2.11
4-fluoroaniline,C6H6FN,2.48
4-fluorobenzaldehyde,C7H5FO,1.98
4-fluorobenzenethiol,C6H5FS,1.06
4-fluorobenzoic acid,C7H5FO2,2.01
4-fluorobenzonitrile,C7H4FN,2.67
4-fluorobiphenyl,C12H9F,1.49
4-fluorooctane,C8H17F,1.83
4-fluorophenol,C6H5FO,1.16
4-fluorotrichloromethylbenzene,C7H4Cl3F,0.68
4-formylpyridine,C6H5NO,1.74
4-heptanol,C7H16O,1.7
4-heptanone,C7H14O,2.68
4-hydroxy-2-methylacetophenone,C9H10O2,3.14
4-hydroxy-3-methylacetophenone,    ⋮,3.36
4-hydroxy-4-methylpentan-2-one,C6H12O2,3.24
4-hydroxyacetophenone,C8H8O2,3.77
4-hydroxyazobenzene,C12H10N2O,2.07
4-hydroxybenzaldehyde,C7H6O2,4.22
4-hydroxybenzeneselenol,C6H6OSe,1.45
4-hydroxybenzoic acid,C7H6O3,2.76
4-hydroxymethylpyridine,C6H7NO,2.6
4-hydroxypyrimidine,C4H4N2O,3.21
4-iodo-2-nitroaniline,C6H5IN2O2,4.59
"4-iodo-N,N-dimethylaniline",C8H10IN,3.07
4-iodoaniline,C6H6IN,2.84
4-iodobenzenesulfonamide,C6H6INO2S,4.53
4-iodobenzonitrile,C7H4IN,2.84
4-iodobiphenyl,C12H9I,1.55
4-iodooctane,C8H17I,2.12
4-iodophenol,C6H5IO,2.21
4-iodophenyl selenocyanate,C7H4INSe,3.34
4-iodophenylsulfonyl chloride,C6H4ClIO2S,3.56
4-iodothiophenol,C6H5IS,2.21
4-isopropylpyridine,C8H11N,2.71
4-mercaptopyrimidine,C4H4N2S,2.95
4-methoxy-2-nitroaniline,C7H8N2O3,3.78
"4-methoxy-N,N-dimethylaniline",C9H13NO,1.77
4-methoxy-N-phenylbenzenesulfonamide,C13H13NO3S,5.61
4-methoxyacetophenone oxime,C9H11NO2,1.52
4-methoxyaniline,C7H9NO,1.8
4-methoxybenzenethiol,C7H8OS,1.91
4-methoxybenzonitrile,C8H7NO,4.75
4-methoxybenzyl alcohol,C8H10O2,2.09
4-methoxybenzylideneaniline,C14H13NO,2.41
4-methoxyphenol,C7H8O2,1.79
4-methoxyphenylcarbonyl selenocyanate,C9H7NO2Se,3.68
4-methoxypyridine,C6H7NO,2.94
4-methoxypyridine 1-oxide,C6H7NO2,5.08
4-methoxypyrimidine,C5H6N2O,1.82
"4-methyl-1,2-cyclohexanedione",C7H10O2,2.96
"4-methyl-1,3-oxazole",C4H5NO,1.08
"4-methyl-1,3-pentadiene",C6H10,0.52
4-methyl-1-pentene,C6H12,0.27
"4-methyl-2,1,3-benzoselenadiazole",C7H6N2Se,1.2
"4-methyl-2,1,3-benzothiadiazole",C7H6N2S,1.84
4-methyl-2-nitroaniline,C7H8N2O2,4.4
4-methyl-2-nitrophenol,C7H7NO3,3.46
"4-methyl-2-oxo-1,3-dioxolane",C4H6O3,4.94
4-methyl-2-pentanone,C6H12O,2.69
4-methyl-3-heptanol,C8H18O,1.23
4-methyl-3-nitrophenol,C7H7NO3,3.97
4-methyl-3-penten-2-one,C6H10O,3.28
4-methyl-3H-benzo[g]chromen-3-one,C14H12O2,4.74
4-methyl-3H-benzo[h]chromen-3-one,    ⋮,4.58
4-methyl-N-phenylbenzenesulfonamide,C13H13NO2S,4.86
4-methylaminopyrimidine,C5H7N3,3.71
4-methylaniline,C7H9N,1.38
4-methylbenzenesulfonic anhydride,C14H14O5S2,5.35
4-methylbenzenesulfonic thioanhydride,C14H14O4S3,3.55
4-methylbenzonitrile,C8H7N,4.33
4-methylbenzophenone,C14H12O,3.17
4-methylchromen-2-one,C10H8O2,5
4-methylcyclohexanol,C7H14O,1.9
4-methylideneoxetan-2-one,C4H4O2,3.53
4-methylisoxazole,C4H5NO,3.58
4-methylmorpholine,C5H11NO,1.21
4-methylpentanenitrile,C6H11N,3.53
4-methylpentanoic acid,C6H12O2,1.13
4-methylphenol,C7H8O,1.64
4-methylphenyl acetate,C9H10O2,1.52
4-methylphthalic anhydride,C9H6O3,5.66
4-methylphthalimide,C9H7NO2,2.53
4-methylpyridazine,C5H6N2,4.34
4-methylpyridine,C6H7N,2.7
4-methylquinoline,C10H9N,2.56
4-methylsulfanylpyrimidine,C5H6N2S,2.05
4-methylthiophenol,C7H8S,1.46
"4-morpholine-4-ylmethyl-4-azatricyclo[5.2.1.02,6]decane-3,5-dione",C14H20N2O3,2.59
4-nitro-1-naphthylamine,C10H8N2O2,6.4
4-nitro-1H-pyrrole-2-carbaldehyde,C5H4N2O3,4.2
"4-nitro-2,1,3-benzothiadiazole",C6H3N3O2S,4.08
4-nitro-2-naphthylamine,C10H8N2O2,4.7
4-nitro-di-N-methylaniline,C8H10N2O2,7.09
4-nitro-N-phenylaniline,C12H10N2O2,6.05
4-nitro-N-phenylbenzenesulfonamide,C12H10N2O4S,4.05
4-nitroaniline,C6H6N2O2,6.91
4-nitroanisole,C7H7NO3,5.26
4-nitroazobenzene,C12H9N3O2,4.45
4-nitrobenzaldehyde,C7H5NO3,2.65
4-nitrobenzamide,C7H6N2O3,4.84
"4-nitrobenzene-1,3-diol",C6H5NO4,4.27
4-nitrobenzoic acid,C7H5NO4,4.05
4-nitrobenzonitrile,C7H4N2O2,0
4-nitrobenzoyl chloride,C7H4ClNO3,1.12
4-nitrobenzyl bromide,C7H6BrNO2,3.6
4-nitrobenzyl chloride,C7H6ClNO2,3.66
4-nitrobiphenyl,C12H9NO2,4.42
4-nitrooctane,C8H17NO2,3.64
4-nitrophenol,C6H5NO3,5.43
4-nitrophenyl isocyanate,C7H4N2O3,3.42
4-nitrophenyl phenyl ether,C12H9NO3,4.54
4-nitrophenyl selenocyanate,C7H4N2O2Se,3.58
4-nitrophenyl thiocyanate,C7H4N2O2S,3.1
4-nitrophenylacetic acid,C8H7NO4,4.94
4-nitrophenylacetonitrile,C8H6N2O2,3.91
4-nitrophenylhydrazine,C6H7N3O2,7.2
4-nitrophthalimide,C8H4N2O4,2.96
"4-nitroso-N,N-dimethylaniline",C8H10N2O,6.45
4-nitrosophenol,C6H5NO2,4.44
4-nitrothioanisole,C7H7NO2S,4.28
4-nitrothiophenol,C6H5NO2S,3.58
4-nitrotoluene,C7H7NO2,4.4
4-nonylphenol,C15H24O,1.59
4-octanol,C8H18O,1.15
4-octylphenol,C14H22O,1.53
4-p-chlorophenylethynylpyridine,C13H8ClN,1.23
4-p-chlorophenylethynylpyridine 1-oxide,C13H8ClNO,3.13
4-p-methoxyphenylethynylpyridine,C14H11NO,3.9
4-p-methoxystyrylpyridine 1-oxide,C14H13NO2,5.56
4-p-methylphenylethynylpyridine,C14H11N,3.25
4-p-methylstyrylpyridine 1-oxide,C14H13NO,4.86
4-p-nitrophenylethynylpyridine,C13H8N2O2,1.63
4-pentylpyridine,C10H15N,2.72
4-phenoxybiphenyl,C18H14O,1.14
"4-phenylaminomethyl-4-azatricyclo[5.2.1.02,6]decane-3,5-dione",C16H18N2O2,2.42
4-phenylazo-1-methoxynaphthalene,C17H14N2O,1.74
4-phenylazo-1-naphthol,C16H12N2O,3.39
4-phenylbenzonitrile,C13H9N,4.34
4-phenylethynylpyridine,    ⋮,2.79
4-phenylethynylpyridine 1-oxide,C13H9NO,4.29
4-phenylpyridine,C11H9N,2.57
4-phenylquinoline,C15H11N,2.39
4-phenylsulfanylphenol,C12H10OS,2.21
4-phenylsulfonylphenol,C12H10O3S,6.11
4-phenylthiazole,C9H7NS,1.33
4-phenylthiobiphenyl,C18H14S,1.55
4-propan-2-ylbenzenethiol,C9H12S,1.52
4-propyl-4-heptanol,C10H22O,1.65
4-propylpyridine,C8H11N,2.7
4-pyridinecarboxylic acid,C6H5NO2,2.7
4-quinone diazide,C6H4N2O,5.02
4-styrylpyridine 1-oxide,C13H11NO,4.49
4-tert-butylpyridine,C9H13N,2.73
4-thiocyanatophenyl selenocyanate,C8H4N2SSe,4.02
4-tolyldiethoxyboron,C11H17BO2,1.44
4-[(E)-2-(4-chlorophenyl)ethenyl]pyridine,C13H10ClN,1.2
4-[(E)-2-(4-methoxyphenyl)ethenyl]pyridine,C14H13NO,3.55
4-[(E)-2-(4-methylphenyl)ethenyl]pyridine,C14H13N,3.19
4-[(E)-2-(4-nitrophenyl)ethenyl]pyridine,C13H10N2O2,1.85
4-[(E)-2-phenylethenyl]pyridine,C13H11N,2.7
4H-pyran-4-one,C5H4O2,3.79
4H-pyran-4-thione,C5H4OS,3.95
4H-thiopyran-4-thione,C5H4S2,3.9
5'-bromo-2'-methylacetophenone,C9H9BrO,1.96
5'-chloro-2'-methylacetophenone,C9H9ClO,2.01
5'-iodo-2'-methylacetophenone,C9H9IO,1.94
"5,5'-dibromo-2,2'-bithiophene",C8H4Br2S2,1.73
"5,5'-diiodo-2,2'-bithiophene",C8H4I2S2,0.85
"5,5-diethyl-1,3-dioxane-4,6-dione",C8H12O4,1.67
"5,5-dimethyl-1,3-dioxane-4,6-dione",C6H8O4,1.83
"5,5-dimethylpyrrolidinone",C6H11NO,4.05
"5,6,7,7a-tetrahydro-2,4-diphenylcyclopenta[b]thiopyran",C20H18S,1.39
"5,6,7,8-tetrahydro-2,4-diphenyl-2H-thiachromene",C21H20S,1.4
"5,6,7,8-tetrahydro-2,4-diphenylcyclohexa[b]thiopyran",C21H20S,1.42
"5,6,7,8-tetrahydro-2-phenyl-4H-thiachromene",C15H16S,1.83
"5,6-dichloroacenaphthene",C12H8Cl2,3.85
"5,6-dihydro-3-methyl-6-aminoimidazo-[2,1-b]thiazole",C6H9N3S,1.8
"5,6-dihydro-3-methylimidazo[2,1-b]thiazole",C6H8N2S,4.2
"5,6-dimethyl-2,1,3-benzoselenadiazole",C8H8N2Se,2.13
5-(1-morpholino)furan-2-carbaldehyde,C9H11NO3,4.81
"5-(2-dicyanomethyleneethylidene)-5H-dibenzo[a,d][7]annulene",C20H12N2,6.07
"5-(4-chlorophenyl)-2-methyl-1,3-dithian",C11H13ClS2,1.28
"5-(p-bromophenyl)-3,3,5-trimethylcyclohexanone",C15H19BrO,3.82
5-(p-chlorophenyl)-3-phenylcyclohex-2-en-1-one,C18H15ClO,3.5
"5-amino-1,2,3,4-tetrazole",CH3N5,5.75
5-aminoquinoline,C9H8N2,3.56
"5-bromo-2,4-dichlorotrifluoromethylbenzene",C7H2BrCl2F3,1.59
5-bromo-2-chlorotrifluoromethylbenzene,C7H3BrClF3,2.41
5-bromo-2-furaldehyde,C5H3BrO2,3.16
"5-bromo-2-hydroxy-2,4,6-cycloheptatrien-1-one",C7H5BrO2,2.07
5-bromofurazan 2-oxide,C2H3BrN2O2,3.65
"5-chloro-2,1,3-benzoselenadiazole",C6H3ClN2Se,0.5
"5-chloro-2,1,3-benzothiadiazole",C6H3ClN2S,0.84
5-chloro-2-benzoxazolinone,C7H4ClNO2,2.21
5-chloro-2-hydroxybenzaldehyde,C7H5ClO2,1.37
"5-chloro-2-methoxy-1,3-dinitrobenzene",C7H5ClN2O5,2.25
5-chloro-2-methoxybenzoxazole,C8H6ClNO2,2.02
5-chloro-2-nitrobenzaldehyde,C7H4ClNO3,3.31
5-chloro-3-methyl-2-benzoxazolinone,C8H6ClNO2,2.71
5-chloro-3-methyl-4-nitro-1-(4-nitrophenyl)pyrazole,C10H7ClN4O4,2.97
"5-chloro-6-methyl-2,1,3-benzoselenadiazole",C7H5ClN2Se,1.04
"5-chloro-6-methyl-2,1,3-benzothiadiazole",C7H5ClN2S,1.32
"5-chloro-6-methyl-2,1,3-benzoxadiazole",C7H5ClN2O,3.38
5-chloroacenaphthene,C12H9Cl,2.5
5-chlorobenzofurazan,C6H3ClN2O,2.88
5-chlorobenzoxazolinethione,C7H4ClNOS,3.43
5-chloroquinoline,C9H6ClN,0.64
"5-dicyanomethylene-5H-dibenzo[a,d][7]annulene",C18H10N2,5.44
5-diethylaminofuran-2-carbaldehyde,C9H13NO2,5.66
"5-dimethylamino-2-methylisoindole-1,3-dione",C11H12N2O2,3.7
5-dimethylaminofuran-2-carbaldehyde,C7H9NO2,5.5
5-ethoxy-3-methyl-1-phenylpyrazole,C12H14N2O,2.65
"5-ethyl-1,3,5-dithiazinane",C5H11NS2,1.46
5-ethyl-2-thiouracil,C6H8N2OS,5.07
"5-fluoro-2,4-dinitroaniline",C6H4FN3O4,5.53
"5-furan-2-yl-1,3-diphenyl-4,5-dihydropyrazole",C19H16N2O,2.51
"5-iodo-2,2'-bithiophene",C8H5IS2,1.28
5-iodo-2-furaldehyde,C5H3IO2,3.24