Name,Formula,Dipole momentμ debye
"5-methyl-1,2,3,4-thiatriazole",C2H3N3S,5.72
"5-methyl-1,3,5-dithiazinane",C4H9NS2,1.47
"5-methyl-1,3-oxazole",C4H5NO,2.16
5-methyl-2(3H)-furanone,C5H6O2,4.08
"5-methyl-2,1,3-benzoselenadiazole",C7H6N2Se,1.84
"5-methyl-2,1,3-benzothiadiazole",C7H6N2S,2.22
"5-methyl-2,1,3-benzoxadiazole",C7H6N2O,4.45
5-methyl-2-(phenylmethyl)-1H-pyrazol-3-one,C11H12N2O,3.1
5-methyl-2-phenyl-1H-pyrazol-3-one,C10H10N2O,3.33
5-methyl-2-phenyl-1H-pyrazole-3-thione,C10H10N2S,2.51
5-methyl-3-heptanol,C8H18O,1.14
5-methylbenzoxazolinethione,C8H7NOS,5.32
5-methylfuran-2-carbaldehyde,C6H6O2,3.94
5-methyloxolan-2-one,C5H8O2,4.71
5-methylpyrimidine,C5H6N2,2.88
5-methylquinoline,C10H9N,2.46
5-nitro-1-naphthylamine,C10H8N2O2,5.16
5-nitro-1H-benzimidazole,C7H5N3O2,6
"5-nitro-2,1,3-benzoselenadiazole",C6H3N3O2Se,3.59
"5-nitro-2,1,3-benzothiadiazole",C6H3N3O2S,2.75
5-nitro-2-benzoxazolinone,C7H4N2O4,1.3
5-nitro-2-furaldehyde,C5H3NO4,3.25
5-nitro-2-naphthylamine,C10H8N2O2,5.42
5-nitroquinoline,C9H6N2O2,2.01
5-nitroselenophene-2-carbaldehyde,C5H3NO3Se,3.82
5-nonanone,C9H18O,2.71
5-phenylacridine,C19H13N,2.4
5-phenylmethylaminofurfural,C12H11NO2,4.95
5-phenylthiazole,C9H7NS,1.89
5-piperidin-1-ylfuran-2-carbaldehyde,C10H13NO2,5.43
"5-propan-2-yl-1,3,5-dithiazinane",C6H13NS2,1.41
"5-tert-butyl-1,3,5-dithiazinane",C7H15NS2,1.85
"6,6'-dimethylbiphenyl-2,2'-diamine",C14H16N2,1.66
"6,8-dibromobenzo[7]annulen-5-one",C11H6Br2O,3.53
"6,9-dibromobenzo[7]annulen-5-one",    ⋮,3.08
6-amino-3-dimethylaminophthalimide,C10H11N3O2,2.14
6-aminoquinoline,C9H8N2,3.24
6-bromo-2-benzoxazolinone,C7H4BrNO2,3.08
6-bromobenzoxazolinethione,C7H4BrNOS,3.94
6-chloro-2-benzoxazolinone,C7H4ClNO2,3.08
6-chloro-4-methylchromen-2-one,C10H7ClO2,3.39
6-chlorobenzoxazolinethione,C7H4ClNOS,3.89
6-chloroquinoline,C9H6ClN,2.02
6-ethyl-2-thiouracil,C6H8N2OS,4.68
"6-hydroxy-2,4-heptadiene",C7H12O,2.76
6-methoxy-2-benzoxazolinone,C8H7NO3,3.62
6-methoxybenzoxazolinethione,C8H7NO2S,4.75
6-methyl-1-(6-methylheptylsulfanyl)heptane,C16H34S,1.64
6-methyl-2-benzoxazolinone,C8H7NO2,4.14
6-methylbenzoxazolinethione,C8H7NOS,5.3
6-methylcoumarin,C10H8O2,4.91
6-methylcyclohexene-1-carbonitrile,C8H11N,4.15
6-methylquinoline,C10H9N,2.32
6-nitro-1-naphthylamine,C10H8N2O2,5.14
6-nitro-2-benzoxazolinone,C7H4N2O4,4.91
6-nitro-2-naphthylamine,C10H8N2O2,6.04
6-nitrocoumarin,C9H5NO4,1.84
6-nitroquinoline,C9H6N2O2,3.87
6-oxidobenzo[c]cinnolin-6-ium,C12H8N2O,5.22
6-phenylquinoline,C15H11N,2.14
"7,7-dibromo-3,4-epoxybicyclo[4.1.0]heptane",C7H8Br2O,0.92
"7,7-dichloro-3,4-epoxybicyclo[4.1.0]heptane",C7H8Cl2O,0.93
7-aminoquinoline,C9H8N2,2.66
7-bromo-1-fluoronaphthalene,C10H6BrF,2.34
7-chlorobicyclo[2.2.1]heptane,C7H11Cl,2.05
7-chloroquinoline,C9H6ClN,3.18
7-methylchromen-2-one,C10H8O2,4.96
7-methylquinoline,C10H9N,2.12
7-nitro-1-naphthylamine,C10H8N2O2,4.41
7-nitro-2-naphthylamine,    ⋮,5.89
7-nitroquinoline,C9H6N2O2,5.47
7-phenylquinoline,C15H11N,2.06
8-aminoquinoline,C9H8N2,1.11
8-bromobenzo[7]annulen-5-one,C11H7BrO,2.79
8-chlorobenzo[7]annulen-5-one,C11H7ClO,2.68
8-chloroquinoline,C9H6ClN,3.55
8-hydroxyquinoline,C9H7NO,2.68
8-hydroxyquinolinolato lithium,,4
8-methylbenzo[7]annulen-7-one,C12H10O,4.25
8-methylquinoline,C10H9N,1.68
8-nitro-1-naphthylamine,C10H8N2O2,4.82
8-nitroquinoline,C9H6N2O2,5.69
8-phenylquinoline,C15H11N,2.04
"9,10-dibromoanthracene",C14H8Br2,0
"9,10-dichloroanthracene",C14H8Cl2,0
"9,10-dimethoxyanthracene",C16H14O2,1.73
"9,10-diphenylanthracene",C26H18,0
"9,9'-bianthryl",C28H18,0
"9,9-dichlorofluorene",C13H8Cl2,1.85
9-acetylanthracene,C16H12O,2.57
9-anthracenecarboxaldehyde,C15H10O,3
"9-anthrylidene-2,4,6-trimethylaniline",C23H21N,1.76
9-anthrylidene-4-bromoaniline,C20H14BrN,2.46
9-anthrylidene-4-chloroaniline,C20H14ClN,2.59
9-anthrylidene-4-dimethylaminoaniline,C22H20N2,2.21
9-anthrylidene-4-iodoaniline,C20H14IN,2.43
9-anthrylidene-4-methoxyaniline,C21H17NO,2.11
9-anthrylidene-4-nitroaniline,C20H14N2O2,5.66
9-anthrylidene-4-toluidine,C21H17N,1.67
9-anthrylideneaniline,C20H15N,1.74
9-benzoyl-10-bromoanthracene,C21H13BrO,2.82
9-benzoyl-10-chloroanthracene,C21H13ClO,2.8
9-benzoyl-10-cyanoanthracene,C22H13NO,4.4
9-benzoylanthracene,C21H14O,2.89
"9-benzyl-1,2,3,4,5,6,7,8-octahydro-9H-thioxanthene",C20H24S,1.62
9-bromoanthracene,C14H9Br,1.5
9-chloroanthracene,C14H9Cl,1.36
9-chlorofluorene,C13H9Cl,1.76
"9-ethyl-1,2,3,4,5,6,7,8-octahydro-9H-thioxanthene",C15H22S,1.65
9-ethylperhydrothioxanthene,C15H26S,1.65
9-methoxyanthracene,C15H12O,1.27
"9-methyl-1,2,3,4,5,6,7,8-octahydro-9H-thioxanthene",C14H20S,1.52
9-methylperhydrothioxanthene,C14H24S,1.57
9-nitroanthracene,C14H9NO2,3.43
"9-phenyl-1,2,3,4,5,6,7,8-octahydro-9H-thioxanthene",C19H22S,1.36
9-phenylanthracene,C20H14,0
9-phenylphenanthridine,C19H13N,2.27
9-vinylanthracene,C16H12,0.2
"9H-fluorene-2,9-diamine",C13H12N2,1.96
9H-thioxanthene,C13H10S,1.25
a-(2-methoxycyclopentyl)mercury bromide,,3.4
a-(2-methoxycyclopentyl)mercury chloride,    ⋮,2.9
a-(2-methoxycyclopentyl)mercury iodide,    ⋮,3.2
a-D-glucopyranose pentaacetate,C16H22O11,3.47
a-difluoromethyl-o-methylstyrene,C10H10F2,2.11
a-difluoromethyl-p-methylstyrene,    ⋮,2.11
acenaphthene,C12H10,0.93
acetaldehyde,C2H4O,2.69
acetaldoxime,C2H5NO,0.75
acetamide,    ⋮,3.76
acetanilide,C8H9NO,3.75
acethydrazide,C2H6N2O,3.18
acetic acid,C2H4O2,1.68
acetic anhydride,C4H6O3,2.8
acetonitrile,C2H3N,3.44
acetophenone,C8H8O,3.05
acetophenone oxime,C8H9NO,0.71
acetoxime,C3H7NO,0.89
acetoxytributyltin,C14H30O2Sn,2.03
acetyl chloride,C2H3ClO,2.72
acetyl cyanide,C3H3NO,3.45
acetyl fluoride,C2H3FO,2.96
acetylmanganese pentacarbonyl,,2.16
acetylrhenium pentacarbonyl,    ⋮,2.47
acridine,C13H9N,2.09
adamantan-2-amine,C10H17N,1.3
adamantan-2-one,C10H14O,3.2
aleuritic acid,C16H32O5,4.28
allyl 2-methylisonicotinate,C10H11NO2,2.39
allyl picolinate,C9H9NO2,2.38
allyl pyridine-3-carboxylate,    ⋮,2.51
allyl quinoline-8-carboxylate,C13H11NO2,3.32
allyl-ethyl-methylsilane,C6H14Si,0.55
allylsulfinyl allyl sulfide,C6H10OS2,3.99
aluminium fluoride,AlF3,1.53
aluminium tribromide,AlBr3,0.55
aluminium tris(ethyl acetoacetate),C18H27AlO9,1.85
"aluminum 2,4-pentanedionate",C15H21AlO6,0
aminoacetonitrile,C2H4N2,2.64
aminodiborane,H7B2N,2.67
aminodimethylborane,C2H8BN,1.47
ammonia,H3N,1.47
aniline,C6H7N,1.51
anthracene,C14H10,0
anthracene-1-carbonitrile,C15H9N,4.14
anthracene-9-carbonitrile,    ⋮,4.13
anthrone,C14H10O,3.65
antimony tribromide,Br3Sb,2.47
antimony trichloride,Cl3Sb,3.6
antimony triiodide,I3Sb,0.4
antipyrine,C11H12N2O,5.47
arachno-tetraborane(10),H10B4,0.49
argon,Ar,0
arsenic tribromide,AsBr3,1.66
arsenic trichloride,AsCl3,1.59
arsenic trifluoride,AsF3,2.59
arsenic triiodide,AsI3,0.96
arsenic trioxide,As2O3,0.14
arsenobenzene,C12H10As2,0
arsine,H3As,0.2
azepan-2-one,C6H11NO,3.88
azidobenzene,C6H5N3,1.55
azidocyclohexane,C6H11N3,2.39
azidoethane,C2H5N3,2.12
azidomethane,CH3N3,2.17
aziridine,C2H5N,1.89
azobenzene,C12H10N2,0.52
azobenzene-2-sulfenyl bromide,C12H9BrN2S,6.34
azobenzene-2-sulfenyl chloride,,6.02
azobenzene-2-sulfenyl cyanide,    ⋮,3.64
azobenzene-2-sulfenyl iodide,    ⋮,6.75
azothiobenzene,    ⋮,1.15
azoxybenzene,C12H10N2O,1.8
azulene,C10H8,0.8
b-(2-methoxycyclopentyl)mercury bromide,,4.7
b-(2-methoxycyclopentyl)mercury chloride,    ⋮,4.1
b-(2-methoxycyclopentyl)mercury iodide,    ⋮,3.9
b-D-glucopyranose pentaacetate,C16H22O11,2.54
barium oxide,BaO,7.95
barium sulfide,BaS,10.86
benzalazine,C14H12N2,0.89
benzaldehyde,C7H6O,2.89
benzaldehyde phenylhydrazone,C13H12N2,1.89
benzamide,C7H7NO,3.76
benzene,C6H6,0
"benzene-1,2-dialdehyde",C8H6O2,4.5
"benzene-1,3-dialdehyde",    ⋮,2.8
"benzene-1,3-dicarboxylic acid",C8H6O4,2.27
"benzene-1,4-dialdehyde",C8H6O2,2.35
"benzene-1,4-dicarboxylic acid",C8H6O4,2.6
benzenesulfinic acid,C6H6O2S,3.26
benzenesulfonamide,C6H7NO2S,5.09
benzenesulfonic acid,C6H6O3S,3.8
benzenesulfonyl chloride,C6H5ClO2S,4.57
benzenesulphonic anhydride,C12H10O5S2,4.83
benzenesulphonic thioanhydride,C12H10O4S3,3.42
benzimidazole,C7H6N2,4.06
benzofurazan,C6H4N2O,4.03
benzofurazan 1-oxide,C6H4N2O2,5.33
benzoic acid,C7H6O2,1.72
benzoic thioanhydride,C14H10O2S,3.7
benzoin,C14H12O2,3.46
benzonitrile,C7H5N,4.28
benzonitrile N-oxide,C7H5NO,4
benzophenone,C13H10O,2.95
benzothiazole,C7H5NS,1.46
benzotriazole,C6H5N3,4.1
benzotrichloride,C7H5Cl3,2.14
benzoxazole,C7H5NO,1.48
benzoxazolinethione,C7H5NOS,4.67
benzoyl bromide,C7H5BrO,3.4
benzoyl chloride,C7H5ClO,3.26
benzo[7]annulen-7-one,C11H8O,4.88
benzo[c]cinnoline,C12H8N2,3.93
benzyl acetate,C9H10O2,1.22
benzyl alcohol,C7H8O,1.71
benzyl benzoate,C14H12O2,2.06
benzyl bromide,C7H7Br,1.9
benzyl chloride,C7H7Cl,1.8
benzyl formate,C8H8O2,1.95
benzyl iodide,C7H7I,1.6
benzylamine,C7H9N,1.1
benzyldibutoxyboron,C15H25BO2,1.54
benzylidene malononitrile,C10H6N2,5.28
benzylidene-4-bromoaniline,C13H10BrN,2.38
benzylidene-4-chloroaniline,C13H10ClN,2.37
benzylidene-4-hydroxyaniline,C13H11NO,1.83
benzylidene-4-iodoaniline,C13H10IN,2.26
benzylidene-4-methoxyaniline,C14H13NO,2.07
benzylidene-4-methylaniline,C14H13N,1.65
benzylidene-4-nitroaniline,C13H10N2O2,4.83
benzylideneaniline,C13H11N,1.61
benzylpentamethyldisilane,C12H22Si2,0.43
beryllium acetylacetonate,C10H14BeO4,1.07
beryllium bromide,BeBr2,0
beryllium chloride,BeCl2,0
bicyclo[3.1.0]hexane,C6H10,0.19
biphenyl,C12H10,0
bis((aminooxy)dibutylborane),,0
bis((butylaminooxy)dibutylborane),    ⋮,0
bis(1-methylpropoxy)dimethylsilane,C10H24O2Si,1.39
"bis(2,2-dimethylpropyl) oxalate",C12H22O4,2.8
"bis(2,4,6-trimethylphenyl)methanone",C19H22O,2.84
"bis(2,4-dichlorophenyl)methanone",C13H6Cl4O,2.39
"bis(2,4-pentadionato)beryllium",,0
"bis(2,4-pentanedionato) beryllium",    ⋮,0.75
"bis(2,5-dichlorophenyl)methanone",C13H6Cl4O,2.77
bis(2-biphenylyl) ether,C24H18O,1.03
bis(2-bromophenyl)methanone,C13H8Br2O,3.57
bis(2-chloroethyl) ether,C4H8Cl2O,2.43
bis(2-chlorophenyl)methanone,C13H8Cl2O,3.34
bis(2-ethylhexyl) phthalate,C24H38O4,2.84
bis(2-iodoethyl) ether,C4H8I2O,2.23
bis(2-methoxyethyl) ether,C6H14O3,1.92
"bis(2-methylamino-1,3-dimethyl-1,3,2-diazaphospholane)",,2.75
bis(2-methylphenyl)methanone,C15H14O,2.51
bis(2-methylpropyl) sulfide,C8H18S,1.58
"bis(3,4-benzo-N-n-propylsalicylaldimino)cobalt(II)",,4.1
"bis(3,5-dinitroperhydro-1,3,5-triazin-1-yl)methane",C7H14N10O8,7.13
bis(3-chloro-N-n-propylsalicylaldimino)cobalt(II),,6.32
bis(3-chlorophenyl)methanone,C13H8Cl2O,2.98
bis(3-chlorophenyl)phenylphosphine,C18H13Cl2P,2.38
bis(3-fluorophenyl)-4-fluorophenylphosphine,C18H12F3P,2.01
bis(3-fluorophenyl)phenylphosphine,C18H13F2P,2.11
bis(3-methylbutyl) ether,C10H22O,1
bis(3-nitrophenyl) disulfide,C12H8N2O4S2,4.44
bis(4-biphenylyl) ether,C24H18O,1.2
bis(4-bromophenyl) diselenide,C12H8Br2Se2,0.64
bis(4-bromophenyl) disulfide,C12H8Br2S2,0.75
bis(4-bromophenyl) ether,C12H8Br2O,1.02
bis(4-bromophenyl) sulfide,C12H8Br2S,0.65
bis(4-bromophenyl)ditelluride,C12H8Br2Te2,1.21
bis(4-bromophenyl)mercury,C12H8Br2Hg,0.92
bis(4-bromophenyl)methane,C13H10Br2,1.79
bis(4-bromophenyl)methanone,C13H8Br2O,1.69
bis(4-chlorophenyl) sulfide,C12H8Cl2S,0.58
bis(4-chlorophenyl)diazomethane,C13H8Cl2N2,0.3
bis(4-chlorophenyl)ditelluride,C12H8Cl2Te2,1.32
bis(4-chlorophenyl)mercury,C12H8Cl2Hg,1.09
bis(4-chlorophenyl)methanone,C13H8Cl2O,1.77
bis(4-chlorophenyl)phenylphosphine,C18H13Cl2P,1.66
bis(4-chlorophenylthio)methane,C13H10Cl2S2,1.1
bis(4-fluorophenyl) sulfone,C12H8F2O2S,3.31
bis(4-fluorophenyl)-phenylphosphane,C18H13F2P,1.64
bis(4-fluorophenyl)mercury,C12H8F2Hg,0.88
bis(4-fluorophenyl)sulfoxide,C12H8F2OS,2.66
"bis(4-methoxy-2,6-dimethylphenyl) sulfide",C18H22O2S,2.18
"bis(4-methoxy-2,6-dimethylphenyl) sulfoxide",C18H22O3S,4.31
bis(4-methoxyphenyl)methane,C15H16O2,1.61
bis(4-methoxyphenyl)methanethione,C15H14O2S,4.44
bis(4-methylphenyl) sulfide,C14H14S,4.06
bis(4-methylphenyl) sulfoxide,C14H14OS,4.4
bis(4-methylphenyl)diazomethane,C15H14N2,1.77
bis(4-methylphenyl)ditelluride,C14H14Te2,2.09
bis(4-methylphenyl)mercury,C14H14Hg,0.74
bis(4-nitrophenyl) ether,C12H8N2O5,2.63
bis(4-nitrophenyl)diazene,C12H8N4O4,0
bis(4-nitrophenyl)methane,C13H10N2O4,4.29
bis(4-nitrophenyl)sulfide,C12H8N2O4S,3.33
bis(4-tolylthio)methane,C15H16S2,1.94
bis(5-chloro-N-n-propylsalicylaldimino)cobalt(II),,4.72
"bis(6-methylheptyl) benzene-1,4-dicarboxylate",C24H38O4,2.57
bis(bromomethyl) ether,C2H4Br2O,0.97
bis(chloromethyl) ether,C2H4Cl2O,0.98
bis(chloromethyl)-methylphosphane,C3H7Cl2P,2.57
bis(dibutylchlorotin(IV)) oxide,C16H36Cl2OSn2,2.24
bis(difluoromethyl) ether,C2H2F4O,1.74
bis(dimethylamino)dimethylsilane,C6H18N2Si,0.81
bis(dimethylamino)methylchlorosilane,C5H15ClN2Si,2.26
bis(dimethylthiocarbamoyl) disulfide,C6H12N2S4,2.23
bis(dimethylthiocarbamoyl) sulfide,C6H12N2S3,5.33
bis(dimethylthiocarbamoyl) tetrasulfide,C6H12N2S6,5.82
bis(dimethylthiocarbamoyl) trisulfide,C6H12N2S5,4.84
bis(diphenylmethyl) ether,C26H22O,1.12
bis(ethyl acetoacetato) copper,,1.07
bis(m-methoxyphenylhydrazine) zinc dibromide,C14H20Br2N4O2Zn,7.9
bis(m-methoxyphenylhydrazine) zinc dichloride,C14H20Cl2N4O2Zn,8.5
bis(m-methoxyphenylhydrazine) zinc diiodide,C14H20I2N4O2Zn,8.6
bis(N-n-amylsalicylaldimino)cobalt(II),,4.62
bis(N-n-propylsalicylaldimino)cobalt(II),    ⋮,4.67
bis(N-phenylsalicylaldimino)cobalt(II),    ⋮,4.16
bis(o-methoxyphenylhydrazine) zinc dibromide,C14H20Br2N4O2Zn,7.9
bis(o-methoxyphenylhydrazine) zinc dichloride,C14H20Cl2N4O2Zn,7.4
bis(o-methoxyphenylhydrazine) zinc diiodide,C14H20I2N4O2Zn,8.3
bis(p-methoxyphenylhydrazine) zinc dibromide,C14H20Br2N4O2Zn,8.3
bis(p-methoxyphenylhydrazine) zinc dichloride,C14H20Cl2N4O2Zn,8.1
bis(p-methoxyphenylhydrazine) zinc diiodide,C14H20I2N4O2Zn,8.1
bis(pentafluoroethyl) ether,C4F10O,0.51
bis(phenylhydrazine) zinc dibromide,C12H16Br2N4Zn,8.5
bis(phenylhydrazine) zinc dichloride,C12H16Cl2N4Zn,8.9
bis(phenylhydrazine) zinc diiodide,C12H16I2N4Zn,8.6
bis(phenylmethyl) hexanedioate,C20H22O4,2.42
bis(phenylthio)methane,C13H12S2,1.57
bis(trifluoromethyl) ether,C2F6O,0.54
bis-(o-bromophenylhydrazine) zinc dibromide,C12H14Br4N4Zn,7.4
bis-(o-bromophenylhydrazine) zinc dichloride,C12H14Br2Cl2N4Zn,7.2
bis-(o-bromophenylhydrazine) zinc diiodide,C12H14Br2I2N4Zn,7.2
bis-(o-chlorophenylhydrazine) zinc dibromide,C12H14Br2Cl2N4Zn,7.4
bis-(o-chlorophenylhydrazine) zinc dichloride,C12H14Cl4N4Zn,7.2
bis-(o-chlorophenylhydrazine) zinc diiodide,C12H14Cl2I2N4Zn,7.7
bis-(p-bromophenylhydrazine) zinc dibromide,C12H14Br4N4Zn,8.6
bis-(p-bromophenylhydrazine) zinc dichloride,C12H14Br2Cl2N4Zn,7.3
bis-(p-bromophenylhydrazine) zinc diiodide,C12H14Br2I2N4Zn,9.1
bis-2-imidobenzimidazoleindium tribromide,,6.12
bis-2-imidobenzimidazoleindium trichloride,    ⋮,6.85
bis-2-imidobenzimidazoleindium triiodide,    ⋮,6.7
bisacetylacetonato(oxo)vanadium,    ⋮,1.31
biuret,C2H5N3O2,3.27
borazole,C3H4BN,0
borine carbonyl,CH3BO,1.77
bornyl acetate,C12H20O2,1.87
bornyl formate,C11H18O2,2.04
bornyl propionate,C13H22O2,1.84
boron trichloride,BCl3,0
boron trifluoride,BF3,0
bromine,Br2,0.45
bromine chloride,BrCl,0.52
bromine dioxide,BrO2,2.8
bromine fluoride,BrF,1.42
bromine monoxide,BrO,1.76
bromine pentafluoride,BrF5,1.51
bromo-but-2-ylmercury,C4H9BrHg,3.7
bromo-butylmercury,    ⋮,3.44
bromo-difluorophosphane,BrF2P,0.83
bromo-methylmercury,CH3BrHg,3.16
bromo-trimethylstannane,C3H9BrSn,3.45
bromobenzene,C6H5Br,1.74
bromochlorofluoromethane,CHBrClF,1.5
bromochloromethane,CH2BrCl,1.66
bromocyclohexane,C6H11Br,2.2
bromodichloromethane,CHBrCl2,1.31
bromodifluoromethane,CHBrF2,1.5
bromodiphenylmethane,C13H11Br,1.86
bromoethane,C2H5Br,2.04
bromoethene,C2H3Br,1.42
bromoethyne,C2HBr,0
bromofluoroacetylene,C2BrF,0.45
bromogermane,H3BrGe,1.95
bromomethane,CH3Br,1.81
bromomethyl methyl ether,C2H5BrO,2.05
bromopentafluorobenzene,C6BrF5,0.8
bromosilane,H3BrSi,1.33
bromotriaacetylacetonatozirconium,C15H24BrO6Zr,5.35
bromotrichloromethane,CBrCl3,0.4
bromotrifluoromethane,CBrF3,0.65
bromotrifluorosilane,BrF3Si,0.83
bromotrimethylgermane,C3H9BrGe,2.84
bromotrimethylsilane,C3H9BrSi,2.36
bromotriphenylsilane,C18H15BrSi,2.22
butanal,C4H8O,2.72
butanamine,C4H11N,1
butane,C4H10,0
butane-1-sulfinyl chloride,C4H9ClOS,3.46
butanedinitrile,C4H4N2,3.8
butanenitrile,C4H7N,4.07
butanethiol,C4H10S,1.53
butanoic acid,C4H8O2,1.65
butanol,C4H10O,1.75
butenone,C4H6O,3.16
butoxyacetylene,C6H10O,2.05
butoxybenzene,C10H14O,1.19
butoxycyclopropane,C7H14O,1.35
butoxytrimethylsilane,C7H18OSi,1.1
butyl 1-chloroethyl ether,C6H13ClO,2.09
butyl acetate,C6H12O2,1.86
butyl chloroformate,C5H9ClO2,2.71
butyl fluoroformate,C5H9FO2,2.92
butyl formate,C5H10O2,2.03
butyl nitrate,C4H9NO3,2.98
butyl nonyl maleate,C17H30O4,2.69
butyl octadecanoate,C22H44O2,1.88
butyl prop-2-enoate,C7H12O2,1.93
butyl propanoate,C7H14O2,1.78
butyl trifluoroacetate,C6H9F3O2,3.1
butyl trifluorothioacetate,C6H9F3OS,3.16
butyl vinyl ether,C6H12O,1.25
butyl-chloromercury,C4H9ClHg,3.2
butyl-trichlorostannane,C4H9Cl3Sn,4.28
butylbenzene,C10H14,0.43
butyldibutoxyarsine oxide,C12H27AsO3,2.94
butyldipropoxyarsine,C10H23AsO2,1.42
butyldipropoxyarsine oxide,C10H23AsO3,3.11
"C,C-diphenyl-N-benzylnitrone",,3.4
"C,N-diphenylnitrone",C13H11NO,3.37
C-(3-nitrophenyl)-N-benzylnitrone,,4.67
C-(4-dimethylaminophenyl)-N-benzylnitrone,    ⋮,3.79
"C-acetoxy-C,N-diphenylnitrone",    ⋮,3.95
"C-phenyl-N-(a,a-diacetoxybenzyl)nitrone",    ⋮,4.44
C-phenyl-N-benzylnitrone,C14H13NO,3.47
camphor,C10H16O,2.95
carbazole,C12H9N,2.11
carbon difluoride,CF2,0.46
carbon dioxide,CO2,0
carbon disulfide,CS2,0
carbon monoselenide,CSe,1.99
carbon monosulfide,CS,1.98
carbon monoxide,CO,0.11
carbonyl fluoride,CF2O,0.95
carbonyl selenide,COSe,0.73
carbonyl sulfide,COS,0.71
cesium chloride,ClCs,10.42
cesium fluoride,CsF,7.88
cetylpyridinium benzoate,C28H43NO2,7.59
chloramine,H2ClN,1.22
chlorine,Cl,0.1
chlorine fluoride,,0.88
chlorine monoxide,ClO,1.24
chlorine trifluoride,ClF3,0.6
chloro(methoxy)methane,C2H5ClO,1.9
chloro(triethylphosphine)gold(I),C6H16AuClP,8.4
chloro-(4-chlorophenyl)-diphenylmethane,C19H14Cl2,2.09
chloro-(phenylmethyl)mercury,C7H7ClHg,3.21
chloro-difluorophosphane,ClF2P,0.93
chloro-heptylmercury,C7H15ClHg,3.35
chloro-propylmercury,C3H7ClHg,3.67
chloro-tri(phenyl)stannane,C18H15ClSn,3.46
chloro-triethylstannane,C6H15ClSn,3.47
chloroacetaldehyde,C2H3ClO,1.99
chloroacetamide,C2H4ClNO,2.94
chloroacetic acid,C2H3ClO2,2.31
chloroacetone,C3H5ClO,2.27
chloroacetonitrile,C2H2ClN,3
chloroacetyl chloride,C2H2Cl2O,2.23
chlorobenzene,C6H5Cl,1.54
chloroborane,H2BCl,0.75
chlorocyclohexane,C6H11Cl,2.19
chlorodifluoromethane,CHClF2,1.42
chlorodiphenylmethane,C13H11Cl,1.82
chloroethane,C2H5Cl,2.04
chloroethene,C2H3Cl,1.45
chloroethyne,C2HCl,0.44
chlorofluoromethane,CH2ClF,1.82
chlorogermane,H3ClGe,2.13
chloromethane,CH3Cl,1.94
chloromethyl butyl sulfide,C5H11ClS,1.79
chloromethyl methyl sulfide,C2H5ClS,1.67
chloromethyl propyl sulfide,C4H9ClS,1.68
chloromethylcyclopentane,C6H11Cl,2.35
chloromethylmercury chloride,CH2Cl2Hg,2.84
chloromethyltrimethylgermane,C4H11ClGe,1.85
chloronitromethane,CH2ClNO2,2.91
chloropentafluoroethane,C2ClF5,0.52
chlorosilane,H3ClSi,1.31
chlorotriethoxytitanium,C6H15ClO3Ti,2.51
chlorotrifluoromethane,CClF3,0.5
chlorotrifluorosilane,ClF3Si,0.64
chlorotrimethylgermane,C3H9ClGe,2.78
chlorotrimethylsilane,C3H9ClSi,2.09
chlorotrimethylstannane,C3H9ClSn,3.46
chlorotriphenylmethane,C19H15Cl,1.91
chlorotriphenylsilane,C18H15ClSi,2.13
chlorotrisacetylacetonatozirconium,C15H24ClO6Zr,5.11
chloryl fluoride,ClFO2,1.63
chromium pentacarbonyl triphenylphosphine,C23H11CrO5P,5.14
chromium tetracarbonyl bis(triphenylphosphine),,0
chromone,C9H6O2,3.54
cinnamonitrile,C9H7N,4.23
cinnamyl alcohol,C9H10O,1.79
"cis-1,2-cyclohexanediol",C6H12O2,2.33
"cis-1,2-dibromocyclohexane",C6H10Br2,3.13
"cis-1,2-dichloroacenaphthene",C12H8Cl2,2.97
"cis-1,2-dichlorocyclohexane",C6H10Cl2,3.11
"cis-1,2-dichloroethene",C2H2Cl2,2.95
"cis-1,2-difluoroethene",C2H2F2,2.42
"cis-1,4-cyclohexanediol",C6H12O2,1.8
"cis-1,4-dibromo-2,3-dimethyl-2-butene",C6H10Br2,2.49
"cis-1,4-dibromocyclohexane",    ⋮,2.89
"cis-1,4-dichlorocyclohexane",C6H10Cl2,2.89
"cis-1,4-diiodocyclohexane",C6H10I2,2.45
cis-1-bromo-2-chlorocyclohexane,C6H10BrCl,3.08
"cis-1-chloro-4,5-dicyanocyclohexene",C8H7ClN2,3.82
cis-1-chloropropene,C3H5Cl,1.67