Name,Formula,Dipole momentμ debye
cis-1-dodecylsulfanyl-2-ethylsulfonylethene,C16H32O2S2,5.71
cis-1-ethylsulfanyl-2-ethylsulfonylethene,C6H12O2S2,5.34
cis-1-ethylsulfonyl-2-isopropylsulfanylethene,C7H14O2S2,5.78
cis-1-ethylsulfonyl-2-isopropylsulfonylethene,C7H14O4S2,2.79
cis-1-ethylsulfonyl-2-methylsulfanylethene,C5H10O2S2,5.31
cis-1-ethylsulfonyl-2-methylsulfonylethene,C5H10O4S2,2.71
cis-1-ethylsulfonyl-2-nonylsulfanylethene,C13H26O2S2,5.72
cis-1-ethylsulfonyl-2-nonylsulfonylethene,C13H26O4S2,2.65
cis-1-fluoropropene,C3H5F,1.46
cis-1-tert-amylsulfonyl-2-ethylsulfonylethene,C9H18O4S2,3.99
cis-1-tert-butylsulfanyl-2-ethylsulfonylethene,C8H16O2S2,5.9
"cis-2,3-dimethyloxirane",C4H8O,2.03
"cis-2,4,6-tribromobenzenediazocyanide",,2.5
"cis-2,5,7,10-tetraoxabicyclo[4.4.0]decane",C6H10O4,1.92
"cis-2,5-dimethyl-1,4-dinitropiperazine",C6H12N4O4,4.32
"cis-2,5-dimethyl-1,4-dinitrosopiperazine",C6H12N4O2,2.73
"cis-2,6-dichlorostilbene",C14H10Cl2,0.73
"cis-2,6-diphenyltetrahydrothiapyran-4-one 1,1-dioxide",C17H16O3S,2.12
"cis-2,6-diphenyltetrahydrothiapyran-4-one 1-oxide",C17H16O2S,2.86
"cis-2-butene-1,4-diol",C4H8O2,2.48
cis-2-ethoxy-6-methyltetrahydropyran,C8H16O2,1.97
cis-2-ethyl-3-methyltetrahydropyran,C8H16O,0.8
cis-2-fluoren-9-yl-3-(4-chlorophenyl)oxirane,C21H15ClO,1.88
cis-2-fluoren-9-yl-3-(4-nitrophenyl)oxiran,C21H15NO3,4
cis-2-methoxy-3-methyltetrahydropyran,C7H14O2,0.77
"cis-2-methoxy-4-methyl-1,3,2-dioxaphosphorinane",,2.87
cis-2-methoxy-4-methyltetrahydropyran,C7H14O2,1.99
cis-2-methoxy-5-methyltetrahydropyran,    ⋮,0.8
cis-2-methoxy-6-methyltetrahydropyran,    ⋮,2.02
"cis-2-tert-butyl-1,3-dithian-1-oxide",,4.39
cis-3-methylcyclohexanol,C7H14O,1.91
"cis-4,4'-dihydroxyazobenzene",C12H10N2O2,2.71
"cis-4,5-dicyanocyclohexene",C8H8N2,4.8
"cis-4-cyclohexene-1,2-dicarboxylic anhydride",C8H8O3,4.89
cis-azobenzene,C12H10N2,3
cis-decalin,C10H18,0
cis-difluorodiazine,F2N2,0.16
cis-o-bromobenzendiazocyanide,,3.82
cis-p-bromobenzenediazocyanide,    ⋮,2.93
cis-p-chlorobenzenediazocyanide,    ⋮,2.96
cis-p-nitrobenzenediazocyanide,    ⋮,2.06
cis-selenophthene,C6H4Se2,1.53
"cis-thianthrene 5,10-dioxide",C12H8O2S2,1.7
cobalt carbonyl dinitroso triphenylphosphine,C19H15CoN2O3P,4.83
cobalt nitroso dicarbonyl triphenylarsine,C20H14AsCoNO3,4.55
cobalt nitroso dicarbonyl triphenylstibine,C20H14CoNO3Sb,4.38
cobalt nitrosyl dicarbonyl triphenylphosphine,C20H14CoNO3P,4.75
cobalt(III) acetylacetonate,C15H21CoO6,0.6
copper(I) fluoride,CuF,5.77
copper(II) oxide,CuO,4.5
copperpyrrolcarbaldehydephenyliminate,C22H18CuN4,2.44
copperpyrrolecarbaldehyde-n-butyliminate,C18H26CuN4,2.78
copperpyrrolecarbaldehyde-o-tolyliminate,C24H22CuN4,1.86
copperpyrrolecarbaldehyde-p-tolyliminate,    ⋮,2.45
copperpyrrolecarbaldehydecyclohexyliminate,C22H30CuN4,3.14
copperpyrrolecarbaldehydemesityliminate,C28H30CuN4,1.39
cumene,C9H12,0.65
cyanamide,CH2N2,4.3
cyanatoethane,C3H5NO,4.72
cyanoallene,C4H3N,4.28
cyanogen,C2N2,0
cyanogen chloride,C2ClN2,2.82
cyanogen fluoride,C2FN2,2.17
cyanomethylmercury,C2H3HgN,4.7
"cyclobutane-1,2-dione",C4H4O2,3.82
cyclobutanecarbonitrile,C5H7N,4.04
cyclobutanone,C4H6O,2.99
cyclobutene,C4H6,0.13
cycloheptatriene,C7H8,0.25
cyclohex-3-ene-1-carbonitrile,C7H9N,3.58
cyclohexanamine,C6H13N,1.31
cyclohexane,C6H12,0
cyclohexanecarbonitrile,C7H11N,3.79
cyclohexanecarboxylic acid,C7H12O2,0.9
cyclohexanethiol,C6H12S,1.64
cyclohexanol,C6H12O,1.85
cyclohexanone,C6H10O,3.06
cyclohexanone oxime,C6H11NO,0.82
cyclohexene,C6H10,0.33
cyclohexene-1-carbonitrile,C7H9N,4.19
cyclohexyl acetate,C8H14O2,1.9
cyclohexylbenzene,C12H16,0.6
cyclooctane,C8H16,0
cyclooctatetraene,C8H8,0.07
"cyclopent-4-ene-1,3-dione",C5H4O2,1.8
cyclopentadiene,C5H6,0.42
cyclopentadieneylmanganese dicarbonyl acetonitrile,,4.92
cyclopentadieneylmanganese dicarbonyl dimethylsulfite,    ⋮,3.32
cyclopentadieneylmanganese dicarbonyl dimethylsulfoxide,    ⋮,3.01
cyclopentadieneylmanganese dicarbonyl sulfurdioxide,    ⋮,2.05
cyclopentadienylchromium dicarbonyl nitrosyl,C7H5CrNO3,3.19
cyclopentadienylcobalt dicarbonyl,C7H5CoO2,2.87
cyclopentadienylmanganese dicarbonyl aniline,C13H10MnNO2,3.88
cyclopentadienylmanganese dicarbonyl benzonitrile,C14H8MnNO2,5.24
cyclopentadienylmanganese dicarbonyl cyclohexylisonitrile,C14H12MnNO2,4.64
cyclopentadienylmanganese dicarbonyl piperidine,C12H12MnNO2,4.7
cyclopentadienylmanganese dicarbonyl pyridine,C12H8MnNO2,5.35
cyclopentadienylmanganese dicarbonyl quinoline,C16H10MnNO2,5.42
cyclopentadienylmanganese dicarbonyl tetramethylenesulfide,    ⋮,4.05
cyclopentadienylmanganesedicarbonyl triphenylphosphine,    ⋮,4.14
cyclopentane,C5H10,0
cyclopentanecarbonitrile,C6H9N,3.74
cyclopentanone,C5H8O,3.28
cyclopentene,C5H8,0.2
cyclopentene-1-carbonitrile,C6H7N,3.97
cyclopentyltrimethylgermane,C8H18Ge,0
cyclopropane,C3H6,0
cyclopropanecarbonitrile,C4H5N,3.66
cyclopropanone,C3H4O,2.67
cyclopropene,C3H4,0.45
cyclopropyl-phenylmethanone,C10H10O,2.85
cyclopropylamine,C3H7N,1.19
d-camphor,C10H16O,3.05
d-carvone,C10H14O,3.17
decachlorobutane,C4Cl10,0.38
decachlorocyclohexene,C6Cl10,0
decanamine,C10H23N,1.41
decane,C10H22,0.07
decanedioic acid,C10H18O4,2.49
decanol,C10H22O,1.6
di(2-methylpropoxy)dimethylsilane,C10H24O2Si,1.29
di(2-nitrophenyl) disulfide,C12H8N2O4S2,5.37
"di(3,5-dimethylpyrazol-1-yl)methanethione",C11H14N4S,3.37
di(4-bromobenzoyloxy)(phenyl)iodine,C20H13Br2IO4,5.1
"di(4-chloro-3,5-dimethylpyrazol-1-yl)methanethione",C11H12Cl2N4S,1.98
di(4-chlorophenyl) diselenide,C12H8Cl2Se2,0.68
di(4-chloropyrazol-1-yl)methanethione,C7H4Cl2N4S,1.96
di(4-fluorobenzoyloxy)(phenyl)iodine,C20H13F2IO4,5.06
di(4-fluorophenyl) diselenide,C12H8F2Se2,0.57
di(4-methoxyphenyl) diselenide,C14H14O2Se2,2.9
di(4-methylbenzoyloxy)(phenyl)iodine,C22H19IO4,4.65
di(4-methylphenyl) diselenide,C14H14Se2,2.49
di(4-nitrophenyl) diselenide,C12H8N2O4Se2,3.86
di(4-nitrophenyl) disulfide,C12H8N2O4S2,3.63
di(benzoyloxy)(phenyl)iodine,C20H15IO4,4.74
di(furan-2-yl)methanone,C9H6O3,3.64
di(naphthalen-1-yl)diazene,C20H14N2,0.3
di(p-chlorophenyl)lead diisobutyrate,C20H22Cl2O4Pb,1.69
di(p-iodophenyl) diselenide,C12H8I2Se2,0.76
di(propan-2-yl)phosphane,C6H15P,1.32
di(pyrazol-1-yl)methanethione,C7H6N4S,3.19
di(pyridin-3-yl)diazene,C10H8N4,2.42
di(pyridin-4-yl)diazene,    ⋮,0.36
di(trimethylsilylethylthio)methylmethane,C12H30S2Si2,1.83
di-4-tolyl selenide,C14H14Se,1.74
di-m-tolyl selenide,    ⋮,1.65
di-n-butyl sulfide,C8H18S,1.59
di-n-butylbisdimethylaminotin,C12H30N2Sn,1.47
di-n-octyl sulfide,C16H34S,1.63
di-n-propylmercury,C6H14Hg,0.54
di-n-propylnitramide,C6H14N2O2,4.76
di-o-tolyl selenide,C14H14Se,1.74
di-p-anisyl selenide,C16H18O2Se,2.35
di-p-anisyl sulfide,C16H18O2S,2.62
di-p-anisyl sulfoxide,C16H18O3S,4.79
di-p-tolyllead diisobutyrate,C22H28O4Pb,1.74
di-p-tolylseleniumdichloride,C14H14Cl2Se,3.69
di-sec-butylamine,C8H19N,1.15
di-tert-butyl disulfide,C8H18S2,1.89
di-tert-butyl ether,C8H18O,1.25
di-tert-butyl oxalate,C10H18O4,2.45
di-tert-butyl sulfide,C8H18S,1.5
di-tert-butyl trisulfide,C8H18S3,1.18
diacetoxy(4-chlorophenyl)iodine,C10H10ClIO4,3.61
diacetoxydibutylstannane,C12H24O4Sn,1.39
diallyl disulfide,C6H10S2,1.76
"diallyl pyridine-2,5-dicarboxylate",C13H13NO4,2.65
"diallyl pyridine-2,6-dicarboxylate",    ⋮,2.58
"diallyl pyridine-3,5-dicarboxylate",    ⋮,2.7
"diallyl quinoline-2,4-dicarboxylate",C17H15NO4,2.46
diallylamine,C6H11N,1.2
diazirine,CH2N2,1.59
diazoacetophenone,C8H6N2O,3.66
diazomethane,CH2N2,1.45
"dibenzo-1,4-dioxin",C12H8O2,0.36
dibenzofuran,C12H8O,0.86
dibenzothiophene,C12H8S,0.79
"dibenzothiophene 5,5-dioxide",C12H8O2S,5.03
dibenzyl disulfide,C14H14S2,1.87
dibenzyl ether,C14H14O,1.39
dibenzyl hyponitrite,C14H14N2O2,0.4
dibenzyl sulfide,C14H14S,1.34
dibenzyl sulfone,C14H14O2S,4.25
dibenzyl sulfoxide,C14H14OS,3.76
diborane,H4B2,0
dibromo-dimethylstannane,C2H6Br2Sn,3.86
dibromobiaacetylacetanatozirconium,C10H16Br2O4Zr,8.03
dibromobisacetylacetanatotitanium,C10H16Br2O4Ti,6.8
dibromobisacetylacetenatotin,C10H16Br2O4Sn,6.8
dibromodifluoromethane,CBr2F2,0.66
dibromomethane,CH2Br2,1.78
dibutoxydimethylsilane,C10H24O2Si,1.28
dibutyl (2Z)-2-butenedioate,C12H20O4,2.7
"dibutyl benzene-1,3-dicarboxylate",C16H22O4,2.52
dibutyl decanedioate,C18H34O4,2.64
dibutyl disulfide,C8H18S2,2.09
dibutyl ether,C8H18O,1.18
dibutyl hexanedioate,C14H26O4,2.49
dibutyl phthalate,C16H22O4,2.83
dibutyl sulfite,C8H18O3S,3.16
dibutyl sulfone,C8H18O2S,4.48
dibutyl sulfoxide,C8H18OS,3.99
dibutyl terephthalate,C16H22O4,2.53
dibutyl-dichlorostannane,C8H18Cl2Sn,4.38
dibutyl-diisothiocyanatostannane,C10H18N2S2Sn,6.2
dibutylamine,C8H19N,0.98
dibutylbisacetylacetanatotin,C18H34O4Sn,2.58
dibutylbisdiethylaminotin,C16H38N2Sn,0.88
dibutylbishexafluoroacetylacetenatotin,C18H22F12O4Sn,1.96
"dibutyldiisothiocyanate-a,a'-dipyridyltin",C20H26N4S2Sn,13.3
dibutyldiisothiocyanatotin-o-phenanthroline,C22H26N4S2Sn,15
dibutyltin bisdibenzoylmethanate,C42H50O4Sn,2.15
dibutyltin dilaurate,C32H64O4Sn,1.45
dibutyltindioxinate,C26H30N2O2Sn,4.63
dibutyltinthiocyanatooxinate,C18H24N2OSSn,7.8
dichloro 2-phenylvinylphosphine,C8H7Cl2P,3.34
dichloro(1-chloroethyl)methylsilane,C3H7Cl3Si,1.87
dichloro(2-chloroethyl)methylsilane,    ⋮,1.96
dichloro(2-chlorophenyl)-iodine,C6H4Cl3I,2.98
dichloro(3-chlorophenyl)-iodine,    ⋮,2.13
dichloro(4-chlorophenyl)-iodine,    ⋮,1.36
dichloro(4-methylphenyl)borane,C7H7BCl2,4.63
dichloro(chloromethyl)methylsilane,C2H5Cl3Si,1.82
dichloro-(4-chlorophenyl)phosphane,C6H4Cl3P,2.28
dichloro-bis(4-chlorophenyl)methane,C13H8Cl4,0.48
dichloro-diethylstannane,C4H10Cl2Sn,4.32
dichloro-methyl-sulfanylidenephosphorane,CH3Cl2PS,3
dichloroacetonitrile,C2HCl2N,2.51
dichlorobis(pyridine)cobalt(II),C10H10Cl2CoN2,9.4
dichlorobis(trimethylphosphine)platinum,C6H18Cl2P2Pt,1.31
dichlorobisacetylacetanatotitanium,C10H16Cl2O4Ti,7.13
dichlorobisacetylacetenatotin,C10H16Cl2O4Sn,6.5
dichlorobisacetylacetonatozirconium,C10H16Cl2O4Zr,7.84
dichlorodifluoromethane,CCl2F2,0.51
dichlorodiphenylmethane,C13H10Cl2,2.28
dichloroethylmethylsilane,C3H8Cl2Si,2.31
dichlorofluoromethane,CHCl2F,1.29
dichlorofluorophosphorus,Cl2FP,0.68
dichloromethane,CH2Cl2,1.14
dichlorophenylborane,C6H5BCl2,4.72
dichlorosilane,H2Cl2Si,1.17
dichlorosulfide,Cl2S,1.04
dichlorotinhexafluoroacetylacetonate,C7H8Cl2F6O2Sn,2.97
dicyanamide,C2N3,8.22
dicyclohexyl (Z)-but-2-enedioate,C16H24O4,2.63
dicyclohexyl hexanedioate,C18H30O4,2.61
dicyclohexylamine,C12H23N,1.1
dicyclopropylmethanone,C7H10O,2.83
didecyl ether,C20H42O,1.34
didodecyl sulfide,C24H50S,1.52
diethanolamine,C4H11NO2,2.79
diethyl (2E)-2-butenedioate,C8H12O4,2.39
diethyl (2Z)-2-butenedioate,    ⋮,2.55
"diethyl (R*,R*)-2,3-dimethoxysuccinate",C10H18O6,3.74
"diethyl (R*,R*)-tartrate",C8H14O6,3.12
"diethyl (R,S)-2,3-dimethoxysuccinate",C10H18O6,3.34
"diethyl (R,S)-tartarate",C8H14O6,3.66
diethyl 1-methylvinylphosphonite,C7H15O2P,1.58
diethyl 1-phenylvinylphosphonite,C12H17O2P,1.74
diethyl 1-propynylphosphonite,C7H13O2P,2.49
diethyl 2-butynedioate,C8H10O4,2.62
diethyl 2-methyl-1-propene-1-ylphosphonite,C8H17O2P,1.61
diethyl 2-phenylvinylphosphonite,C12H17O2P,1.83
"diethyl 3,3-dimethyl-1-butynylphosphonite",C10H19O2P,2.67
"diethyl 4,4'-azoxybenzoate",C18H18N2O5,3.2
diethyl allylphosphonate,C7H15O3P,2.92
diethyl azidodiformate,,2.58
diethyl butanedioate,C8H14O4,2.17
diethyl carbonate,C5H10O3,1.07
"diethyl cyclobutane-1,1-dicarboxylate",C10H16O4,2.22
"diethyl cyclohexane-1,1-dicarboxylate",C12H20O4,2.23
"diethyl cyclopentane-1,1-dicarboxylate",C11H18O4,2.14
"diethyl cyclopropane-1,1-dicarboxylate",C9H14O4,2.4
diethyl decanedioate,C14H26O4,2.49
diethyl dimethylaminophosphite,C6H17NO3P,1.65
diethyl disulfide,C4H10S2,2.01
diethyl dithiooxalate,C6H10O2S2,1.3
diethyl ether,C4H10O,1.3
diethyl ethylphosphonate,C6H15O3P,2.84
diethyl ethynylphosphonite,C6H11O2P,1.97
diethyl hexanedioate,C10H18O4,2.4
diethyl hyponitrite,C4H10N2O2,1.5
diethyl isophthalate,C12H14O4,2.41
diethyl mercury,C4H10Hg,0.39
diethyl octadecanedioate,C22H42O4,2.48
diethyl oxalate,C6H10O4,2.54
diethyl pentanedioate,C9H16O4,2.41
diethyl phenylethynylphosphite,C12H16O3P,2.17
diethyl phthalate,C12H14O4,2.4
diethyl propanedioate,C7H12O4,2.57
"diethyl quinoline-2,4-dicarboxylate",C15H15NO4,2.48
diethyl sulfide,C4H10S,1.52
diethyl sulfite,C4H10O3S,3.09
diethyl sulfone,C4H10O2S,4.48
diethyl sulfoxide,C4H10OS,4.07
diethyl sulphate,C4H10O4S,4.46
diethyl terephthalate,C12H14O4,2.3
diethyl tetradecandioate,C18H34O4,2.2
diethyl thiooxalate,C6H10O3S,1.52
diethyl vinylphosphonate,C6H13O3P,2.91
diethyl vinylphosphonite,C6H13O2P,1.7
diethyl-methylsulfanyl-sulfanylidenephosphorane,C5H13PS2,3.46
diethyl-methylthio-methoxysilane,C6H16OSSi,1.51
diethylamine,C4H11N,1.03
diethylbisacetylacetenatotin,C14H26O4Sn,2.56
diethylbisdiethylaminotin,C12H30N2Sn,1.02
diethylbisdimethylaminotin,C8H22N2Sn,1.32
diethylchlorophosphate,C4H10ClO3P,3.57
diethyldithiophosphinic acid,C4H11PS2,3.89
diethyldithiophosphinic acid 4-chlorophenyl ester,C10H14ClPS2,3.92
diethyldithiophosphinic acid phenyl ester,C10H15PS2,3.98
diethyldithiophosphinic acid propyl ester,C7H17PS2,3.21
diethylene glycol,C4H10O3,2.31
diethylphenylarsine,C10H15As,1.32
diethyltin bisdibenzoylmethanate,C38H42O4Sn,2.09
difluoramine,HF2N,1.93
difluoro(4-methylphenyl)borane,C7H7BF2,3.58
difluoro(trifluorosilyl)borane,BF5Si,1.09
difluoro-dimethylgermane,C2H6F2Ge,3.39
difluoro-iodophosphane,F2IP,0.85
difluoro-methylphosphine,CH3F2P,2.05
difluoro-n-hexylborane,C6H13BF2,3.3
difluoroacetonitrile,C2HF2N,2.32
difluorobisacetylacetanatotitanium,C10H16F2O4Ti,6.38
difluorobisacetylacetenatotin,C10H16F2O4Sn,6.07
difluoroborane,HBF2,0.97
difluoromethane,CH2F2,1.96
difluoromethoxybenzene,C7H6F2O,2.46
difluoromethylsulfanylbenzene,C7H6F2S,2.48
difluoromethylsulfonylbenzene,C7H6F2O2S,4.08
difluorophenylborane,C6H5BF2,3.63
difluorophosphine oxide,HF2OP,2.65
difluorophosphine-borane,H4BF2P,2.5
difluorophosphorylmethane,CH3F2OP,3.69
difluorosilane,H2F2Si,1.55
"diheptyl benzene-1,3-dicarboxylate",C22H34O4,2.55
"diheptyl benzene-1,4-dicarboxylate",    ⋮,2.58
"dihexyl benzene-1,3-dicarboxylate",C20H30O4,2.57
"dihexyl benzene-1,4-dicarboxylate",    ⋮,2.52
dihexyl ether,C12H26O,1.18
diiodobisacetylacetenatotin,C10H16I2O4Sn,6.03
diiodomethane,CH2I2,1.15
diisobutyl sulfoxide,C8H18OS,3.9
diisopropyl disulfide,C6H14S2,2.14
diisopropyl ether,C6H14O,1.13
diisopropyl phosphite,C6H14O3P,3.08
diisopropyl sulfide,C6H14S,1.67
diisopropyl sulfone,C6H14O2S,5.54
diisopropyl sulfoxide,C6H14OS,4.03
diisopropylamine,C6H15N,1.2
diisopropyldimethylsilane,C8H20Si,1.39
diisopropylnitramide,C6H14N2O2,4.91
dilauroyl tetrabutyldistannoxane,C40H82O3Sn2,3.31
dimesityl sulfide,C18H22S,1.48
dimesityl sulfoxide,C18H22OS,4.02
dimethoxy-(4-methylphenyl)borane,C9H13BO2,1.37
dimethoxydimethylsilane,C4H12O2Si,1.37
dimethoxymethane,C3H8O2,0.91
"dimethyl (2R*,3R*)-2,3-dichlorobutanedioate",C6H8Cl2O4,2.93
"dimethyl (2R,3S)-2,3-dimethylbutanedioate",C8H14O4,2.25
"dimethyl (2S,3R)-2,3-dichlorobutanedioate",C6H8Cl2O4,2.47
"dimethyl (2S,3S)-2,3-dihydroxybutanedioate",C6H10O6,2.93
dimethyl (2Z)-2-butenedioate,C6H8O4,2.48
dimethyl (E)-butenedioate,    ⋮,2.25
"dimethyl (R*,R*)-2,3-dimethoxysuccinate",C8H14O6,3.13
"dimethyl (R*,R*)-tartrate",C6H10O6,2.95
"dimethyl (R,S)-2,3-diethylsuccinate",C10H18O4,2
"dimethyl (R,S)-2,3-dimethoxysuccinate",C8H14O6,2.9
"dimethyl 2,3-diethylbutanedioate",C10H18O4,2.27
dimethyl 2-butynedioate,C6H6O4,2.43
"dimethyl biphenyl-4,4'-dicarboxylate",C16H14O4,2.2
dimethyl carbonate,C3H6O3,0.93
"dimethyl d,l-2,3-dimethylsuccinate",C8H14O4,2.26
dimethyl dichloroborylamine,C2H6BCl2N,3.05
dimethyl diphenate,C16H14O4,2.3
dimethyl diselenide,C2H6Se2,1.76
dimethyl disulfide,C2H6S2,1.99
dimethyl ether,C2H6O,1.3
dimethyl isophthalate,C10H10O4,2.23
dimethyl methylphosphonate,C3H9O3P,3.62
dimethyl phosphite,C2H6O3P,2.94
dimethyl phthalate,C10H10O4,2.66
dimethyl propanedioate,C5H8O4,1.52
"dimethyl pyridine-2,5-dicarboxylate",C9H9NO4,2.64
"dimethyl pyridine-2,6-dicarboxylate",    ⋮,2.49
"dimethyl pyridine-3,5-dicarboxylate",    ⋮,2.7
dimethyl selenide,C2H6Se,1.32
dimethyl sulfate,C2H6O4S,4.02
dimethyl sulfide,C2H6S,1.5
dimethyl sulfone,C2H6O2S,4.47
dimethyl sulfoxide,C2H6OS,4.1
dimethyl terephthalate,C10H10O4,2.2
dimethyl thiosulfite,C2H6O2S2,1.91
dimethyl trisulfide,C2H6S3,1.67
dimethyl(pentafluorophenyl)phosphine sulfide,C8H6F5PS,4.43
dimethyl-methylsulfanyl-sulfanylidenephosphorane,C3H9PS2,3.44
dimethyl-sulfanyl-sulfanylidenephosphorane,C2H7PS2,3.92
dimethylamine,C2H7N,1.03
dimethylaminotriaminosilane,C2H12N4Si,0.67
dimethylaminotrichlorosilane,C2H6Cl3NSi,2.48
dimethylarsine bromide,C2H7AsBr,2.71
dimethylarsine chloride,C2H7AsCl,2.68
dimethylarsine fluoride,C2H7AsF,2.37
dimethylarsine iodide,C2H7AsI,2.54
dimethylbisacetylacetanatotin,C12H22O4Sn,2.95
dimethylbisdimethylaminotin,C6H18N2Sn,0.87
dimethylbishexafluoracetylacetanatotin,C12H10F12O4Sn,2.05
dimethylchlorophosphine sulfide,C2H6ClPS,4.01
dimethylcyanamide,C3H6N2,4.77
dimethylcyanophosphine,C3H6NP,3.83
dimethyldibromosilane,C2H6Br2Si,2.45
dimethyldichlorogermane,C2H6Cl2Ge,3.11
dimethyldichlorosilane,C2H6Cl2Si,1.89
dimethyldiethoxysilane,C6H16O2Si,1.36
dimethyldiphenoxysilane,C14H16O2Si,1.21
dimethyldipropoxysilane,C8H20O2Si,1.31
dimethyldithiophosphinic acid 4-chlorophenyl ester,C8H10ClPS2,3.89
dimethylfumarodinitrile,C6H6N2,0.6
dimethylgermane,C2H8Ge,0.62
dimethylindiumacetylacetonate,C5H8InO2,2.01
dimethylketazine,C6H12N2,1.52
dimethylmaleodinitrile,C6H6N2,6
dimethylmercury,C2H6Hg,0.71
dimethylphenylphosphine sulfide,C8H11PS,4.8
dimethylphosphine,C2H7P,1.23
dimethylphosphineborane,C2H10BP,4.76
dimethylsilane,C2H8Si,0.75
dimethylsilanediol,C2H8O2Si,1.94
dimethyltellurium diiodide,C2H6I2Te,2.28
dimethylthalliumacetylacetonate,C7H14O2Tl,1.7
dimethylthalliumdibenzoylmethanate,C19H22O2Tl,1.79
dimethylthalliumhexafluoroacetylacetonate,C7H8F6O2Tl,4.55
dimethyltin bisdibenzoylmethanate,C36H38O4Sn,3.02
dimethyltin dichloride,C2H6Cl2Sn,4.22
dimethylzinc,C2H6Zn,1
dinitrogen oxide,N2O,0.17
dinitrogen tetroxide,N2O4,0.54
dinitrogen trioxide,N2O3,2.05
dinonyl (Z)-but-2-enedioate,C22H40O4,2.66
dinonyl decanedioate,C28H54O4,2.62
dinonyl hexanedioate,C24H46O4,2.53
dinonyl sulfide,C18H38S,1.56
"dioctyl benzene-1,4-dicarboxylate",C24H38O4,2.54
dioxane,C4H8O2,0.45
dioxygen,O2,0
dioxygen difluoride,F2O2,1.44
"dipentyl benzene-1,3-dicarboxylate",C18H26O4,2.58
"dipentyl benzene-1,4-dicarboxylate",    ⋮,2.56
dipentyl disulfide,C10H22S2,2.09
dipentyl ether,C10H22O,1.2
dipentyl hexanedioate,C16H30O4,2.51
dipentyl sulfide,C10H22S,1.59
dipentyl sulfone,C10H22O2S,4.53
dipentyl sulfoxide,C10H22OS,3.98
diphenyl dichloroborylamine,C12H10BCl2N,2.68
diphenyl diselenide,C12H10Se2,1.68
diphenyl disulfide,C12H10S2,1.9
diphenyl ditelluride,C12H10Te2,1.62
diphenyl ether,C12H10O,1.17
diphenyl oxalate,C14H10O4,2.3
diphenyl selenide,C12H10Se,1.39
diphenyl sulfide,C12H10S,1.55
diphenyl sulfone,C12H10O2S,5.09
diphenyl sulfoxide,C12H10OS,4.08
diphenyl telluride,C12H10Te,1.14
diphenyl zinc,C12H10Zn,1.18
diphenyl(1-propynyl)phosphine,C15H13P,1.87
"diphenyl(3,3-dimethyl-1-butynyl)phosphine",C18H19P,1.84
diphenyl(dimethylamino)phosphine selenide,C14H16NPSe,4.71
diphenyl(dimethylamino)phosphine sulfide,C14H16NPS,4.46
diphenyl(phenylethynyl)phosphine,C20H15P,1.67
diphenyl(trifluoro-1-propynyl)phosphine,C15H10F3P,3.31
diphenyl-1-phenylvinylphosphine,C20H17P,1.38
diphenyl-2-phenylvinylphosphine,C20H17P,1.56
diphenylacetonitrile,C14H11N,3.57
diphenylamine,C12H11N,1.3
diphenylberyllium,C12H10Be,1.65
diphenylbisacetylacetanatotin,C22H26O4Sn,3.78
diphenylbisdiethylaminotin,C20H30N2Sn,1.11
diphenylbisdimethylaminotin,C16H22N2Sn,1.53
diphenylbishexafluoroacetylacetanatotin,C22H14F12O4Sn,2.38
diphenylcadmium,C12H10Cd,0.68
diphenylchloroarsine,C12H10AsCl,2.73
diphenylchlorotinoxinate,C21H16ClNOSn,4.76
diphenyldiazomethane,C13H10N2,1.3
diphenyldibromosilane,C12H10Br2Si,2.77
diphenyldichlorosilane,C12H10Cl2Si,2.58
diphenyldichlorotin,C12H10Cl2Sn,3.65
diphenyldifluorosilane,C12H10F2Si,2.59
"diphenyldiisothiocyanatotin-a,a'-dipyridyl",C24H18N4S2Sn,7.2
diphenyldiisothiocyanatotin-o-phenanthroline,C26H18N4S2Sn,6
diphenyldithiophosphinic acid methyl ester,C13H13PS2,4.06
diphenylethyne,C14H10,0